 vasp.6.3.0 20Jan22 (build Mar 06 2023 08:24:33) complex                        
  
 executed on             LinuxIFC date 2023.04.05  18:07:34
 running on  384 total cores
 distrk:  each k-point on  384 cores,    1 groups
 distr:  one band on NCORE=   4 cores,   96 groups


--------------------------------------------------------------------------------------------------------


 INCAR:
   ENCUT = 500
   SIGMA = 0.0001
   EDIFF = 1E-4
   LHFCALC = .TRUE.
   AEXX = 1.0
   ALGO = C
   NCORE = 4

 POTCAR:    PAW_PBE C_GW 28Sep2005                
 POTCAR:    PAW_PBE Mg_sv_GW 20Apr2010            
 POTCAR:    PAW_PBE O_GW_new 19Mar2012            
 -----------------------------------------------------------------------------
|                                                                             |
|           W    W    AA    RRRRR   N    N  II  N    N   GGGG   !!!           |
|           W    W   A  A   R    R  NN   N  II  NN   N  G    G  !!!           |
|           W    W  A    A  R    R  N N  N  II  N N  N  G       !!!           |
|           W WW W  AAAAAA  RRRRR   N  N N  II  N  N N  G  GGG   !            |
|           WW  WW  A    A  R   R   N   NN  II  N   NN  G    G                |
|           W    W  A    A  R    R  N    N  II  N    N   GGGG   !!!           |
|                                                                             |
|     For optimal performance we recommend to set                             |
|       NCORE = 2 up to number-of-cores-per-socket                            |
|     NCORE specifies how many cores store one orbital (NPAR=cpu/NCORE).      |
|     This setting can greatly improve the performance of VASP for DFT.       |
|     The default, NCORE=1 might be grossly inefficient on modern             |
|     multi-core architectures or massively parallel machines. Do your        |
|     own testing! More info at https://www.vasp.at/wiki/index.php/NCORE      |
|     Unfortunately you need to use the default for GW and RPA                |
|     calculations (for HF NCORE is supported but not extensively tested      |
|     yet).                                                                   |
|                                                                             |
 -----------------------------------------------------------------------------

 POTCAR:    PAW_PBE C_GW 28Sep2005                
   SHA256 =  2c64eee1059aeb37bcbfbbf93191b6229a866e6b7fb7be04c2badc02647cde23 C_GW/POTCAR           
   COPYR  = (c) Copyright 28Sep2005 Georg Kresse                                                    
   COPYR  = This file is part of the software VASP. Any use, copying, and all other rights are regul
   COPYR  = If you do not have a valid VASP license, you may not use, copy or distribute this file. 
   VRHFIN =C: s2p2                                                                                  
   LEXCH  = PE                                                                                      
   EATOM  =   147.1560 eV,   10.8157 Ry                                                             
                                                                                                    
   TITEL  = PAW_PBE C_GW 28Sep2005                                                                  
   LULTRA =        F    use ultrasoft PP ?                                                          
   IUNSCR =        0    unscreen: 0-lin 1-nonlin 2-no                                               
   RPACOR =    0.000    partial core radius                                                         
   POMASS =   12.011; ZVAL   =    4.000    mass and valenz                                          
   RCORE  =    1.500    outmost cutoff radius                                                       
   RWIGS  =    1.630; RWIGS  =    0.863    wigner-seitz radius (au A)                               
   ENMAX  =  413.992; ENMIN  =  310.494 eV                                                          
   ICORE  =        2    local potential                                                             
   LCOR   =        T    correct aug charges                                                         
   LPAW   =        T    paw PP                                                                      
   EAUG   =  644.873                                                                                
   DEXC   =    0.000                                                                                
   RMAX   =    1.529    core radius for proj-oper                                                   
   RAUG   =    1.300    factor for augmentation sphere                                              
   RDEP   =    1.501    radius for radial grids                                                     
   RDEPT  =    1.300    core radius for aug-charge                                                  
                                                                                                    
   Atomic configuration                                                                             
    4 entries                                                                                       
     n  l   j            E        occ.                                                              
     1  0  0.50      -273.3789   2.0000                                                             
     2  0  0.50       -13.7508   2.0000                                                             
     2  1  0.50        -5.2854   2.0000                                                             
     3  2  1.50        -5.4423   0.0000                                                             
   Description                                                                                      
     l       E           TYP  RCUT    TYP  RCUT                                                     
     0    -13.7508457     23  1.200                                                                 
     0     95.2407820     23  1.200                                                                 
     1     -5.2854382     23  1.500                                                                 
     1    108.8466080     23  1.500                                                                 
     2     -5.4423304      7  1.500                                                                 
  local pseudopotential read in
  kinetic energy density of atom read in
  atomic valenz-charges read in
  non local Contribution for L=           0  read in
    real space projection operators read in
  non local Contribution for L=           0  read in
    real space projection operators read in
  non local Contribution for L=           1  read in
    real space projection operators read in
  non local Contribution for L=           1  read in
    real space projection operators read in
    PAW grid and wavefunctions read in
 
   number of l-projection  operators is LMAX  =           4
   number of lm-projection operators is LMMAX =           8
 
 POTCAR:    PAW_PBE Mg_sv_GW 20Apr2010            
   SHA256 =  3d7dd7d103e51042f54bea7dffe451be5afac3a648aa2ddcaeb8bc821b8c3576 Mg_sv_GW/POTCAR       
   COPYR  = (c) Copyright 20Apr2010 Georg Kresse                                                    
   COPYR  = This file is part of the software VASP. Any use, copying, and all other rights are regul
   COPYR  = If you do not have a valid VASP license, you may not use, copy or distribute this file. 
   VRHFIN =Mg: p6s2                                                                                 
   LEXCH  = PE                                                                                      
   EATOM  =  1714.3102 eV,  125.9982 Ry                                                             
                                                                                                    
   TITEL  = PAW_PBE Mg_sv_GW 20Apr2010                                                              
   LULTRA =        F    use ultrasoft PP ?                                                          
   IUNSCR =        1    unscreen: 0-lin 1-nonlin 2-no                                               
   RPACOR =    1.200    partial core radius                                                         
   POMASS =   24.305; ZVAL   =   10.000    mass and valenz                                          
   RCORE  =    1.750    outmost cutoff radius                                                       
   RWIGS  =    2.000; RWIGS  =    1.058    wigner-seitz radius (au A)                               
   ENMAX  =  429.893; ENMIN  =  322.420 eV                                                          
   RCLOC  =    1.204    cutoff for local pot                                                        
   LCOR   =        T    correct aug charges                                                         
   LPAW   =        T    paw PP                                                                      
   EAUG   =  980.156                                                                                
   RMAX   =    1.785    core radius for proj-oper                                                   
   RAUG   =    1.300    factor for augmentation sphere                                              
   RDEP   =    1.781    radius for radial grids                                                     
   RDEPT  =    1.370    core radius for aug-charge                                                  
                                                                                                    
   Atomic configuration                                                                             
    5 entries                                                                                       
     n  l   j            E        occ.                                                              
     1  0  0.50     -1269.8065   2.0000                                                             
     2  0  0.50       -89.5509   2.0000                                                             
     2  1  1.50       -56.2970   6.0000                                                             
     3  2  1.50        -1.1497   2.0000                                                             
     4  3  2.50        -1.1687   0.0000                                                             
   Description                                                                                      
     l       E           TYP  RCUT    TYP  RCUT                                                     
     0    -89.5509445     23  1.250                                                                 
     0    -90.9115271     23  1.250                                                                 
     0     95.2407820     23  1.250                                                                 
     1    -56.2970117     23  1.550                                                                 
     1    -57.6575943     23  1.550                                                                 
     1     95.2407820     23  1.750                                                                 
     2     -1.1497365     23  1.750                                                                 
     2     26.4233202     23  1.750                                                                 
  local pseudopotential read in
  partial core-charges read in
  partial kinetic energy density read in
  kinetic energy density of atom read in
  atomic valenz-charges read in
  non local Contribution for L=           0  read in
    real space projection operators read in
  non local Contribution for L=           0  read in
    real space projection operators read in
  non local Contribution for L=           0  read in
    real space projection operators read in
  non local Contribution for L=           1  read in
    real space projection operators read in
  non local Contribution for L=           1  read in
    real space projection operators read in
  non local Contribution for L=           1  read in
    real space projection operators read in
  non local Contribution for L=           2  read in
    real space projection operators read in
  non local Contribution for L=           2  read in
    real space projection operators read in
    PAW grid and wavefunctions read in
 
   number of l-projection  operators is LMAX  =           8
   number of lm-projection operators is LMMAX =          22
 
 POTCAR:    PAW_PBE O_GW_new 19Mar2012            
   SHA256 =  c493eb4e480bc193c6922e0b8c73e7a108f48fca6e73afddd92a880a1c2b3374 O_GW_new/POTCAR       
   COPYR  = (c) Copyright 19Mar2012 Georg Kresse                                                    
   COPYR  = This file is part of the software VASP. Any use, copying, and all other rights are regul
   COPYR  = If you do not have a valid VASP license, you may not use, copy or distribute this file. 
   VRHFIN =O: s2p4                                                                                  
   LEXCH  = PE                                                                                      
   EATOM  =   432.3788 eV,   31.7789 Ry                                                             
                                                                                                    
   TITEL  = PAW_PBE O_GW_new 19Mar2012                                                              
   LULTRA =        F    use ultrasoft PP ?                                                          
   IUNSCR =        1    unscreen: 0-lin 1-nonlin 2-no                                               
   RPACOR =    0.800    partial core radius                                                         
   POMASS =   16.000; ZVAL   =    6.000    mass and valenz                                          
   RCORE  =    1.600    outmost cutoff radius                                                       
   RWIGS  =    1.600; RWIGS  =    0.847    wigner-seitz radius (au A)                               
   ENMAX  =  434.431; ENMIN  =  325.824 eV                                                          
   ICORE  =        3    local potential                                                             
   LCOR   =        T    correct aug charges                                                         
   LPAW   =        T    paw PP                                                                      
   EAUG   = 1139.609                                                                                
   DEXC   =    0.000                                                                                
   RMAX   =    1.629    core radius for proj-oper                                                   
   RAUG   =    1.300    factor for augmentation sphere                                              
   RDEP   =    1.652    radius for radial grids                                                     
   RDEPT  =    1.200    core radius for aug-charge                                                  
                                                                                                    
   Atomic configuration                                                                             
    5 entries                                                                                       
     n  l   j            E        occ.                                                              
     1  0  0.50      -514.6923   2.0000                                                             
     2  0  0.50       -23.9615   2.0000                                                             
     2  1  0.50        -9.0305   4.0000                                                             
     3  2  1.50        -9.5241   0.0000                                                             
     4  3  2.50        -9.5241   0.0000                                                             
   Description                                                                                      
     l       E           TYP  RCUT    TYP  RCUT                                                     
     0    -23.9615316     23  1.150                                                                 
     0    -25.3221142     23  1.150                                                                 
     0    244.9048680     23  1.300                                                                 
     1     -9.0304908     23  1.500                                                                 
     1     -6.9258396     23  1.500                                                                 
     1    122.4524340     23  1.500                                                                 
     2     13.6058260     23  1.500                                                                 
     2    190.4815640     23  1.600                                                                 
     3     54.4233040     23  1.400                                                                 
  local pseudopotential read in
  partial core-charges read in
  partial kinetic energy density read in
  kinetic energy density of atom read in
  atomic valenz-charges read in
  non local Contribution for L=           0  read in
    real space projection operators read in
  non local Contribution for L=           0  read in
    real space projection operators read in
  non local Contribution for L=           0  read in
    real space projection operators read in
  non local Contribution for L=           1  read in
    real space projection operators read in
  non local Contribution for L=           1  read in
    real space projection operators read in
  non local Contribution for L=           1  read in
    real space projection operators read in
  non local Contribution for L=           2  read in
    real space projection operators read in
  non local Contribution for L=           2  read in
    real space projection operators read in
    PAW grid and wavefunctions read in
 
   number of l-projection  operators is LMAX  =           8
   number of lm-projection operators is LMMAX =          22
 
 -----------------------------------------------------------------------------
|                                                                             |
|               ----> ADVICE to this user running VASP <----                  |
|                                                                             |
|     You have a (more or less) 'large supercell' and for larger cells it     |
|     might be more efficient to use real-space projection operators.         |
|     Therefore, try LREAL= Auto in the INCAR file.                           |
|     Mind: For very accurate calculation, you might also keep the            |
|     reciprocal projection scheme (i.e. LREAL=.FALSE.).                      |
|                                                                             |
 -----------------------------------------------------------------------------

  PAW_PBE C_GW 28Sep2005                :
 energy of atom  1       EATOM= -147.1560
 kinetic energy error for atom=    0.0076 (will be added to EATOM!!)
  PAW_PBE Mg_sv_GW 20Apr2010            :
 energy of atom  2       EATOM=-1714.3102
 kinetic energy error for atom=    0.0603 (will be added to EATOM!!)
  PAW_PBE O_GW_new 19Mar2012            :
 energy of atom  3       EATOM= -432.3788
 kinetic energy error for atom=    0.0278 (will be added to EATOM!!)
 
 
 POSCAR:  C  O Mg  O
  positions in direct lattice
  No initial velocities read in
 exchange correlation table for  LEXCH =        8
   RHO(1)=    0.500       N(1)  =     2000
   RHO(2)=  100.500       N(2)  =     4000
 


--------------------------------------------------------------------------------------------------------


 ion  position               nearest neighbor table
   1  0.500  0.500  0.648-  66 1.15
   2  0.000  0.750  0.308-  34 2.11  36 2.11  37 2.11  44 2.11  53 2.11
   3  0.250  0.000  0.308-  35 2.11  36 2.11  37 2.11  45 2.11  52 2.11
   4  0.000  0.000  0.389-  36 2.11  35 2.11  34 2.11  42 2.11  51 2.11  40 2.12
   5  0.250  0.750  0.389-  37 2.11  35 2.11  34 2.11  43 2.11  50 2.11  41 2.12
   6  0.000  0.750  0.471-  48 2.11  41 2.11  57 2.11  40 2.11  34 2.12  38 2.15
   7  0.250  0.000  0.471-  56 2.11  49 2.11  41 2.11  40 2.11  35 2.12  39 2.15
   8  0.000  0.000  0.552-  38 2.11  39 2.11  46 2.11  55 2.11  40 2.11
   9  0.250  0.750  0.552-  41 2.11  39 2.11  38 2.11  47 2.11  54 2.11
  10  0.000  0.250  0.308-  42 2.11  36 2.11  44 2.11  45 2.11  61 2.11
  11  0.250  0.500  0.308-  43 2.11  37 2.11  44 2.11  45 2.11  60 2.11
  12  0.000  0.500  0.389-  44 2.11  42 2.11  43 2.11  34 2.11  59 2.11  48 2.12
  13  0.250  0.250  0.389-  45 2.11  42 2.11  43 2.11  35 2.11  58 2.11  49 2.12
  14  0.000  0.250  0.471-  48 2.11  49 2.11  65 2.11  40 2.11  42 2.12  46 2.15
  15  0.250  0.500  0.471-  64 2.11  49 2.11  41 2.11  48 2.11  43 2.13  47 2.15
  16  0.000  0.500  0.552-  47 2.10  63 2.10  48 2.11  46 2.11  38 2.11
  17  0.250  0.250  0.552-  49 2.11  46 2.11  39 2.11  47 2.11  62 2.11
  18  0.500  0.750  0.308-  50 2.11  37 2.11  52 2.11  53 2.11  60 2.11
  19  0.750  0.000  0.308-  51 2.11  36 2.11  52 2.11  53 2.11  61 2.11
  20  0.500  0.000  0.389-  52 2.11  50 2.11  51 2.11  35 2.11  58 2.11  56 2.12
  21  0.750  0.750  0.389-  53 2.11  50 2.11  51 2.11  34 2.11  59 2.11  57 2.12
  22  0.500  0.750  0.471-  64 2.11  57 2.11  41 2.11  56 2.11  50 2.13  54 2.15
  23  0.750  0.000  0.471-  56 2.11  57 2.11  65 2.11  40 2.11  51 2.12  55 2.15
  24  0.500  0.000  0.552-  54 2.10  62 2.10  56 2.11  39 2.11  55 2.11
  25  0.750  0.750  0.552-  57 2.11  55 2.11  38 2.11  54 2.11  63 2.11
  26  0.500  0.250  0.308-  58 2.11  52 2.11  45 2.11  60 2.11  61 2.11
  27  0.750  0.500  0.308-  59 2.11  53 2.11  44 2.11  60 2.11  61 2.11
  28  0.500  0.500  0.389-  60 2.11  50 2.11  58 2.11  59 2.11  43 2.11  64 2.13
  29  0.750  0.250  0.389-  61 2.11  51 2.11  58 2.11  59 2.11  42 2.11  65 2.12
  30  0.500  0.250  0.471-  64 2.11  49 2.11  65 2.11  56 2.11  58 2.13  62 2.15
  31  0.750  0.500  0.471-  64 2.11  57 2.11  65 2.11  48 2.11  59 2.13  63 2.15
  32  0.500  0.500  0.554-  47 2.12  54 2.12  62 2.12  63 2.12  64 2.14
  33  0.750  0.250  0.552-  65 2.11  55 2.11  46 2.11  63 2.11  62 2.11
  34  0.000  0.750  0.389-   2 2.11   4 2.11   5 2.11  12 2.11  21 2.11   6 2.12
  35  0.250  0.000  0.389-   3 2.11   4 2.11   5 2.11  13 2.11  20 2.11   7 2.12
  36  0.000  0.000  0.308-   4 2.11   3 2.11   2 2.11  10 2.11  19 2.11
  37  0.250  0.750  0.308-   5 2.11   3 2.11   2 2.11  11 2.11  18 2.11
  38  0.000  0.750  0.554-   8 2.11   9 2.11  25 2.11  16 2.11   6 2.15
  39  0.250  0.000  0.554-   8 2.11   9 2.11  17 2.11  24 2.11   7 2.15
  40  0.000  0.000  0.471-   8 2.11   7 2.11   6 2.11  14 2.11  23 2.11   4 2.12
  41  0.250  0.750  0.471-   9 2.11   7 2.11   6 2.11  15 2.11  22 2.11   5 2.12
  42  0.000  0.250  0.389-  10 2.11   4 2.11  12 2.11  13 2.11  29 2.11  14 2.12
  43  0.250  0.500  0.389-  11 2.11   5 2.11  12 2.11  13 2.11  28 2.11  15 2.13
  44  0.000  0.500  0.308-  12 2.11  10 2.11  11 2.11   2 2.11  27 2.11
  45  0.250  0.250  0.308-  13 2.11  10 2.11  11 2.11   3 2.11  26 2.11
  46  0.000  0.250  0.554-   8 2.11  17 2.11  33 2.11  16 2.11  14 2.15
  47  0.249  0.500  0.554-  16 2.10   9 2.11  17 2.11  32 2.12  15 2.15
  48  0.000  0.500  0.471-  16 2.11  14 2.11   6 2.11  15 2.11  31 2.11  12 2.12
  49  0.250  0.250  0.471-  17 2.11  14 2.11   7 2.11  15 2.11  30 2.11  13 2.12
  50  0.500  0.750  0.389-  18 2.11   5 2.11  20 2.11  21 2.11  28 2.11  22 2.13
  51  0.750  0.000  0.389-  19 2.11   4 2.11  20 2.11  21 2.11  29 2.11  23 2.12
  52  0.500  0.000  0.308-  20 2.11  18 2.11  19 2.11   3 2.11  26 2.11
  53  0.750  0.750  0.308-  21 2.11  18 2.11  19 2.11   2 2.11  27 2.11
  54  0.500  0.751  0.554-  24 2.10   9 2.11  25 2.11  32 2.12  22 2.15
  55  0.750  0.000  0.554-   8 2.11  25 2.11  33 2.11  24 2.11  23 2.15
  56  0.500  0.000  0.471-  24 2.11  23 2.11   7 2.11  22 2.11  30 2.11  20 2.12
  57  0.750  0.750  0.471-  25 2.11  23 2.11   6 2.11  31 2.11  22 2.11  21 2.12
  58  0.500  0.250  0.389-  26 2.11  20 2.11  13 2.11  28 2.11  29 2.11  30 2.13
  59  0.750  0.500  0.389-  27 2.11  21 2.11  12 2.11  28 2.11  29 2.11  31 2.13
  60  0.500  0.500  0.308-  28 2.11  18 2.11  26 2.11  27 2.11  11 2.11
  61  0.750  0.250  0.308-  29 2.11  19 2.11  26 2.11  27 2.11  10 2.11
  62  0.500  0.249  0.554-  24 2.10  17 2.11  33 2.11  32 2.12  30 2.15
  63  0.751  0.500  0.554-  16 2.10  25 2.11  33 2.11  32 2.12  31 2.15
  64  0.500  0.500  0.471-  15 2.11  22 2.11  30 2.11  31 2.11  28 2.13  32 2.14
  65  0.750  0.250  0.471-  33 2.11  23 2.11  14 2.11  31 2.11  30 2.11  29 2.12
  66  0.500  0.500  0.692-   1 1.15
 
  LATTYP: Found a simple tetragonal cell.
 ALAT       =     8.4409846542
 C/A-ratio  =     3.0761793169
  
  Lattice vectors:
  
 A1 = (   8.4409846542,   0.0000000000,   0.0000000000)
 A2 = (   0.0000000000,   8.4409846542,   0.0000000000)
 A3 = (   0.0000000000,   0.0000000000,  25.9659824075)


Analysis of symmetry for initial positions (statically):
=====================================================================
 Subroutine PRICEL returns:
 Original cell was already a primitive cell.
 

 Routine SETGRP: Setting up the symmetry group for a 
 simple tetragonal supercell.


 Subroutine GETGRP returns: Found  8 space group operations
 (whereof  8 operations were pure point group operations)
 out of a pool of 16 trial point group operations.


The static configuration has the point symmetry C_4v.


Analysis of symmetry for dynamics (positions and initial velocities):
=====================================================================
 Subroutine PRICEL returns:
 Original cell was already a primitive cell.
 

 Routine SETGRP: Setting up the symmetry group for a 
 simple tetragonal supercell.


 Subroutine GETGRP returns: Found  8 space group operations
 (whereof  8 operations were pure point group operations)
 out of a pool of 16 trial point group operations.


The dynamic configuration has the point symmetry C_4v.


 Subroutine INISYM returns: Found  8 space group operations
 (whereof  8 operations are pure point group operations),
 and found     1 'primitive' translations


----------------------------------------------------------------------------------------

                                     Primitive cell                                     

  volume of cell :    1850.0820

  direct lattice vectors                    reciprocal lattice vectors
     8.440984654  0.000000000  0.000000000     0.118469591  0.000000000  0.000000000
     0.000000000  8.440984654  0.000000000     0.000000000  0.118469591  0.000000000
     0.000000000  0.000000000 25.965982408     0.000000000  0.000000000  0.038511926

  length of vectors
     8.440984654  8.440984654 25.965982408     0.118469591  0.118469591  0.038511926

  position of ions in fractional coordinates (direct lattice)
     0.500000000  0.500000000  0.647738350
     0.000000000  0.750000000  0.308095410
     0.250000000  0.000000000  0.308095410
     0.000000000  0.000000000  0.389365055
     0.250000000  0.750000000  0.389365055
     0.000000000  0.749939268  0.471142648
     0.250060732  0.000000000  0.471142648
     0.000000000  0.000000000  0.552192338
     0.249858327  0.750141673  0.552047952
     0.000000000  0.250000000  0.308095410
     0.250000000  0.500000000  0.308095410
     0.000000000  0.500000000  0.389365055
     0.250000000  0.250000000  0.389365055
     0.000000000  0.250060732  0.471142648
     0.250378379  0.500000000  0.471254605
     0.000000000  0.500000000  0.552085521
     0.249858327  0.249858327  0.552047952
     0.500000000  0.750000000  0.308095410
     0.750000000  0.000000000  0.308095410
     0.500000000  0.000000000  0.389365055
     0.750000000  0.750000000  0.389365055
     0.500000000  0.749621621  0.471254605
     0.749939268  0.000000000  0.471142648
     0.500000000  0.000000000  0.552085521
     0.750141673  0.750141673  0.552047952
     0.500000000  0.250000000  0.308095410
     0.750000000  0.500000000  0.308095410
     0.500000000  0.500000000  0.389365055
     0.750000000  0.250000000  0.389365055
     0.500000000  0.250378379  0.471254605
     0.749621621  0.500000000  0.471254605
     0.500000000  0.500000000  0.553729877
     0.750141673  0.249858327  0.552047952
     0.000000000  0.750000000  0.389365055
     0.250000000  0.000000000  0.389365055
     0.000000000  0.000000000  0.308095410
     0.250000000  0.750000000  0.308095410
     0.000000000  0.750218533  0.554027498
     0.249781467  0.000000000  0.554027498
     0.000000000  0.000000000  0.470918096
     0.249945770  0.750054230  0.470958532
     0.000000000  0.250000000  0.389365055
     0.250000000  0.500000000  0.389365055
     0.000000000  0.500000000  0.308095410
     0.250000000  0.250000000  0.308095410
     0.000000000  0.249781467  0.554027498
     0.248822710  0.500000000  0.553948320
     0.000000000  0.500000000  0.470879301
     0.249945770  0.249945770  0.470958532
     0.500000000  0.750000000  0.389365055
     0.750000000  0.000000000  0.389365055
     0.500000000  0.000000000  0.308095410
     0.750000000  0.750000000  0.308095410
     0.500000000  0.751177290  0.553948320
     0.750218533  0.000000000  0.554027498
     0.500000000  0.000000000  0.470879301
     0.750054230  0.750054230  0.470958532
     0.500000000  0.250000000  0.389365055
     0.750000000  0.500000000  0.389365055
     0.500000000  0.500000000  0.308095410
     0.750000000  0.250000000  0.308095410
     0.500000000  0.248822710  0.553948320
     0.751177290  0.500000000  0.553948320
     0.500000000  0.500000000  0.471264325
     0.750054230  0.249945770  0.470958532
     0.500000000  0.500000000  0.691904590

  ion indices of the primitive-cell ions
   primitive index   ion index
                 1           1
                 2           2
                 3           3
                 4           4
                 5           5
                 6           6
                 7           7
                 8           8
                 9           9
                10          10
                11          11
                12          12
                13          13
                14          14
                15          15
                16          16
                17          17
                18          18
                19          19
                20          20
                21          21
                22          22
                23          23
                24          24
                25          25
                26          26
                27          27
                28          28
                29          29
                30          30
                31          31
                32          32
                33          33
                34          34
                35          35
                36          36
                37          37
                38          38
                39          39
                40          40
                41          41
                42          42
                43          43
                44          44
                45          45
                46          46
                47          47
                48          48
                49          49
                50          50
                51          51
                52          52
                53          53
                54          54
                55          55
                56          56
                57          57
                58          58
                59          59
                60          60
                61          61
                62          62
                63          63
                64          64
                65          65
                66          66

----------------------------------------------------------------------------------------

 
 
 KPOINTS: Automatically generated mesh            

Automatic generation of k-mesh.
 Grid dimensions read from file:
 generate k-points for:    2    2    1

 Generating k-lattice:

  Cartesian coordinates                     Fractional coordinates (reciprocal lattice)
     0.059234796  0.000000000  0.000000000     0.500000000  0.000000000  0.000000000
     0.000000000  0.059234796  0.000000000     0.000000000  0.500000000  0.000000000
     0.000000000  0.000000000  0.038511926     0.000000000  0.000000000  1.000000000

  Length of vectors
     0.059234796  0.059234796  0.038511926

  Shift w.r.t. Gamma in fractional coordinates (k-lattice)
     0.000000000  0.000000000  0.000000000

 
 Subroutine IBZKPT returns following result:
 ===========================================
 
 Found      3 irreducible k-points:
 
 Following reciprocal coordinates:
            Coordinates               Weight
  0.000000  0.000000  0.000000      1.000000
  0.500000  0.000000  0.000000      2.000000
  0.500000  0.500000  0.000000      1.000000
 
 Following cartesian coordinates:
            Coordinates               Weight
  0.000000  0.000000  0.000000      1.000000
  0.059235  0.000000  0.000000      2.000000
  0.059235  0.059235  0.000000      1.000000
 
 
 Subroutine IBZKPT_HF returns following result:
 ==============================================
 
 Found      4 k-points in 1st BZ
 the following      4 k-points will be used (e.g. in the exchange kernel)
 Following reciprocal coordinates:   # in IRBZ
  0.000000  0.000000  0.000000    0.25000000   1 t-inv F
  0.500000  0.000000  0.000000    0.25000000   2 t-inv F
  0.500000  0.500000  0.000000    0.25000000   3 t-inv F
  0.000000  0.500000  0.000000    0.25000000   2 t-inv F


--------------------------------------------------------------------------------------------------------




 Dimension of arrays:
   k-points           NKPTS =      3   k-points in BZ     NKDIM =      4   number of bands    NBANDS=    384
   number of dos      NEDOS =    301   number of ions     NIONS =     66
   non local maximal  LDIM  =      8   non local SUM 2l+1 LMDIM =     22
   total plane-waves  NPLWV = 331776
   max r-space proj   IRMAX =      1   max aug-charges    IRDMAX=   2607
   dimension x,y,z NGX =    48 NGY =   48 NGZ =  144
   dimension x,y,z NGXF=    96 NGYF=   96 NGZF=  288
   support grid    NGXF=    96 NGYF=   96 NGZF=  288
   ions per type =               1  32  33
   NGX,Y,Z   is equivalent  to a cutoff of   9.45,  9.45,  9.22 a.u.
   NGXF,Y,Z  is equivalent  to a cutoff of  18.91, 18.91, 18.44 a.u.

 SYSTEM =  unknown system                          
 POSCAR =   C  O Mg  O                             

 Startparameter for this run:
   NWRITE =      2    write-flag & timer
   PREC   = normal    normal or accurate (medium, high low for compatibility)
   ISTART =      0    job   : 0-new  1-cont  2-samecut
   ICHARG =      2    charge: 1-file 2-atom 10-const
   ISPIN  =      1    spin polarized calculation?
   LNONCOLLINEAR =      F non collinear calculations
   LSORBIT =      F    spin-orbit coupling
   INIWAV =      1    electr: 0-lowe 1-rand  2-diag
   LASPH  =      F    aspherical Exc in radial PAW
 Electronic Relaxation 1
   ENCUT  =  500.0 eV  36.75 Ry    6.06 a.u.  15.39 15.39 47.34*2*pi/ulx,y,z
   ENINI  =  500.0     initial cutoff
   ENAUG  = 1139.6 eV  augmentation charge cutoff
   NELM   =     60;   NELMIN=  2; NELMDL= -5     # of ELM steps 
   EDIFF  = 0.1E-03   stopping-criterion for ELM
   LREAL  =      F    real-space projection
   NLSPLINE    = F    spline interpolate recip. space projectors
   LCOMPAT=      F    compatible to vasp.4.4
   GGA_COMPAT  = T    GGA compatible to vasp.4.4-vasp.4.6
   LMAXPAW     = -100 max onsite density
   LMAXMIX     =    2 max onsite mixed and CHGCAR
   VOSKOWN=      0    Vosko Wilk Nusair interpolation
   ROPT   =    0.00000   0.00000   0.00000
 Ionic relaxation
   EDIFFG = 0.1E-02   stopping-criterion for IOM
   NSW    =      0    number of steps for IOM
   NBLOCK =      1;   KBLOCK =      1    inner block; outer block 
   IBRION =     -1    ionic relax: 0-MD 1-quasi-New 2-CG
   NFREE  =      0    steps in history (QN), initial steepest desc. (CG)
   ISIF   =      0    stress and relaxation
   IWAVPR =     10    prediction:  0-non 1-charg 2-wave 3-comb
   ISYM   =      3    0-nonsym 1-usesym 2-fastsym
   LCORR  =      T    Harris-Foulkes like correction to forces

   POTIM  = 0.5000    time-step for ionic-motion
   TEIN   =    0.0    initial temperature
   TEBEG  =    0.0;   TEEND  =   0.0 temperature during run
   SMASS  =  -3.00    Nose mass-parameter (am)
   estimated Nose-frequenzy (Omega)   =  0.10E-29 period in steps = 0.13E+47 mass=  -0.163E-26a.u.
   SCALEE = 1.0000    scale energy and forces
   NPACO  =    256;   APACO  = 10.0  distance and # of slots for P.C.
   PSTRESS=    0.0 pullay stress

  Mass of Ions in am
   POMASS =  12.01 24.30 16.00
  Ionic Valenz
   ZVAL   =   4.00 10.00  6.00
  Atomic Wigner-Seitz radii
   RWIGS  =  -1.00 -1.00 -1.00
  virtual crystal weights 
   VCA    =   1.00  1.00  1.00
   NELECT =     522.0000    total number of electrons
   NUPDOWN=      -1.0000    fix difference up-down

 DOS related values:
   EMIN   =  10.00;   EMAX   =-10.00  energy-range for DOS
   EFERMI =   0.00
   ISMEAR =     1;   SIGMA  =   0.00  broadening in eV -4-tet -1-fermi 0-gaus

 Electronic relaxation 2 (details)
   IALGO  =     58    algorithm
   LDIAG  =      T    sub-space diagonalisation (order eigenvalues)
   LSUBROT=      F    optimize rotation matrix (better conditioning)
   TURBO    =      0    0=normal 1=particle mesh
   IRESTART =      0    0=no restart 2=restart with 2 vectors
   NREBOOT  =      0    no. of reboots
   NMIN     =      0    reboot dimension
   EREF     =   0.00    reference energy to select bands
   IMIX   =      4    mixing-type and parameters
     AMIX     =   0.40;   BMIX     =  1.00
     AMIX_MAG =   1.60;   BMIX_MAG =  1.00
     AMIN     =   0.10
     WC   =   100.;   INIMIX=   1;  MIXPRE=   1;  MAXMIX= -45

 Intra band minimization:
   WEIMIN = 0.0000     energy-eigenvalue tresh-hold
   EBREAK =  0.65E-07  absolut break condition
   DEPER  =   0.30     relativ break condition  

   TIME   =   0.40     timestep for ELM

  volume/ion in A,a.u.               =      28.03       189.17
  Fermi-wavevector in a.u.,A,eV,Ry     =   1.073745  2.029085 15.686555  1.152929
  Thomas-Fermi vector in A             =   2.209554
 
 Write flags
   LWAVE        =      T    write WAVECAR
   LDOWNSAMPLE  =      F    k-point downsampling of WAVECAR
   LCHARG       =      T    write CHGCAR
   LVTOT        =      F    write LOCPOT, total local potential
   LVHAR        =      F    write LOCPOT, Hartree potential only
   LELF         =      F    write electronic localiz. function (ELF)
   LORBIT       =      0    0 simple, 1 ext, 2 COOP (PROOUT), +10 PAW based schemes


 Dipole corrections
   LMONO  =      F    monopole corrections only (constant potential shift)
   LDIPOL =      F    correct potential (dipole corrections)
   IDIPOL =      0    1-x, 2-y, 3-z, 4-all directions 
   EPSILON=  1.0000000 bulk dielectric constant

 Exchange correlation treatment:
   GGA     =    --    GGA type
   LEXCH   =     8    internal setting for exchange type
   LIBXC   =     F    Libxc                    
   VOSKOWN =     0    Vosko Wilk Nusair interpolation
   EXXOEP  =     0    0=HF, 1=EXX-LHF (local Hartree Fock) 2=EXX OEP
   LHFCALC =     T    Hartree Fock is set to
   LSYMGRAD=     F    symmetrize gradient (conserves proper symmetry)
   PRECFOCK=normal    Normal, Fast or Accurate (Low or Medium for compatibility)
   LRHFCALC=     F    long range Hartree Fock
   LRSCOR  =     F    long range correlation only (use DFT for short range part)
   LTHOMAS =     F    Thomas Fermi screening in HF
   LMODELHF=     F    short range full HF, long range fraction AEXX
   LFOCKACE=     T    use Adeptively-Compressed-Exchange operator
   ENCUT4O =  -1.0   cutoff for four orbital integrals eV
   LMAXFOCK=     4    L truncation for augmentation on plane wave grid
   LMAXFOCKAE=  -1    L truncation for all-electron charge restoration on plane wave grid
   NMAXFOCKAE=   1    number of basis functions for all-electron charge restoration
   LFOCKAEDFT=     F  apply the AE augmentation even for DFT
   NKREDX  =     1    reduce k-point grid by
   NKREDY  =     1    reduce k-point grid by
   NKREDZ  =     1    reduce k-point grid by
   SHIFTRED=     F    shift reduced grid of Gamma
   HFKIDENT=     F    idential grid for each k-point
   ODDONLY =     F    use only odd q-grid points
   EVENONLY=     F    use only even q-grid points
   HFALPHA =   -1.0000 decay constant for conv. correction
   MCALPHA =    0.0000 extent of test-charge in conv. correction in multipole expansion
   AEXX    =    1.0000 exact exchange contribution
   HFSCREEN=    0.0000 screening length (either q_TF or 0.3 A-1)
   HFSCREENC=   0.0000 screening length for correlation (either q_TF or 0.3 A-1)
   HFRCUT  =    0.0000 spherical cutoff for potential kernel
   HFRCUTSOFT=    0.0000 smooth spherical cutoff for potential kernel
   ERFCRAY_SCREEN=    0.0000 screening factor for erfc+rayleigh like screening for potential kernel
   RAYLEXP=    0.0000  rayleigh exponent in erfc+rayleigh like screening
   ALDAX   =    0.0000 LDA exchange part
   AGGAX   =    0.0000 GGA exchange part
   ALDAC   =    0.0000 LDA correlation
   AGGAC   =    0.0000 GGA correlation
   ENCUTFOCK=  -1.0 apply spherical cutoff to Coloumb kernel
   NBANDSGWLOW=     1    first orbital included in HF term
   NBLOCK_FOCK=    64    blocking factor in FOCK_ACC

 Linear response parameters
   LEPSILON=     F    determine dielectric tensor
   LRPA    =     F    only Hartree local field effects (RPA)
   LNABLA  =     F    use nabla operator in PAW spheres
   LVEL    =     F    velocity operator in full k-point grid
   CSHIFT  =0.1000    complex shift for real part using Kramers Kronig
   OMEGAMAX=  -1.0    maximum frequency
   DEG_THRESHOLD= 0.2000000E-02 threshold for treating states as degnerate
   RTIME   =   -0.100 relaxation time in fs
  (WPLASMAI=    0.000 imaginary part of plasma frequency in eV, 0.658/RTIME)
   DFIELD  = 0.0000000 0.0000000 0.0000000 field for delta impulse in time
 
  Optional k-point grid parameters
   LKPOINTS_OPT  =     F    use optional k-point grid
   KPOINTS_OPT_MODE=     1    mode for optional k-point grid
 
 Orbital magnetization related:
   ORBITALMAG=     F  switch on orbital magnetization
   LCHIMAG   =     F  perturbation theory with respect to B field
   DQ        =  0.001000  dq finite difference perturbation B field
   LLRAUG    =     F  two centre corrections for induced B field



--------------------------------------------------------------------------------------------------------


 Static calculation
 charge density and potential will be updated during run
 non-spin polarized calculation
 Conjugate gradient for all bands (Freysoldt, et al. PRB 79, 241103 (2009))
 preconditioned conjugated gradient                                        
 perform sub-space diagonalisation
    before iterative eigenvector-optimisation
 modified Broyden-mixing scheme, WC =      100.0
 initial mixing is a Kerker type mixing with AMIX =  0.4000 and BMIX =      1.0000
 Hartree-type preconditioning will be used
 using additional bands          123
 reciprocal scheme for non local part
 use partial core corrections
 no Harris-corrections to forces 
 use gradient corrections 
 use of overlap-Matrix (Vanderbilt PP)
 Methfessel and Paxton  Order N= 1 SIGMA  =   0.00


--------------------------------------------------------------------------------------------------------


  energy-cutoff  :      500.00
  volume of cell :     1850.08
      direct lattice vectors                 reciprocal lattice vectors
     8.440984654  0.000000000  0.000000000     0.118469591  0.000000000  0.000000000
     0.000000000  8.440984654  0.000000000     0.000000000  0.118469591  0.000000000
     0.000000000  0.000000000 25.965982408     0.000000000  0.000000000  0.038511926

  length of vectors
     8.440984654  8.440984654 25.965982408     0.118469591  0.118469591  0.038511926


 
 k-points in units of 2pi/SCALE and weight: Automatically generated mesh            
   0.00000000  0.00000000  0.00000000       0.250
   0.05923480  0.00000000  0.00000000       0.500
   0.05923480  0.05923480  0.00000000       0.250
 
 k-points in reciprocal lattice and weights: Automatically generated mesh            
   0.00000000  0.00000000  0.00000000       0.250
   0.50000000  0.00000000  0.00000000       0.500
   0.50000000  0.50000000  0.00000000       0.250
 
 position of ions in fractional coordinates (direct lattice) 
   0.50000000  0.50000000  0.64773835
   0.00000000  0.75000000  0.30809541
   0.25000000  0.00000000  0.30809541
   0.00000000  0.00000000  0.38936505
   0.25000000  0.75000000  0.38936505
   0.00000000  0.74993927  0.47114265
   0.25006073  0.00000000  0.47114265
   0.00000000  0.00000000  0.55219234
   0.24985833  0.75014167  0.55204795
   0.00000000  0.25000000  0.30809541
   0.25000000  0.50000000  0.30809541
   0.00000000  0.50000000  0.38936505
   0.25000000  0.25000000  0.38936505
   0.00000000  0.25006073  0.47114265
   0.25037838  0.50000000  0.47125460
   0.00000000  0.50000000  0.55208552
   0.24985833  0.24985833  0.55204795
   0.50000000  0.75000000  0.30809541
   0.75000000  0.00000000  0.30809541
   0.50000000  0.00000000  0.38936505
   0.75000000  0.75000000  0.38936505
   0.50000000  0.74962162  0.47125460
   0.74993927  0.00000000  0.47114265
   0.50000000  0.00000000  0.55208552
   0.75014167  0.75014167  0.55204795
   0.50000000  0.25000000  0.30809541
   0.75000000  0.50000000  0.30809541
   0.50000000  0.50000000  0.38936505
   0.75000000  0.25000000  0.38936505
   0.50000000  0.25037838  0.47125460
   0.74962162  0.50000000  0.47125460
   0.50000000  0.50000000  0.55372988
   0.75014167  0.24985833  0.55204795
   0.00000000  0.75000000  0.38936505
   0.25000000  0.00000000  0.38936505
   0.00000000  0.00000000  0.30809541
   0.25000000  0.75000000  0.30809541
   0.00000000  0.75021853  0.55402750
   0.24978147  0.00000000  0.55402750
   0.00000000  0.00000000  0.47091810
   0.24994577  0.75005423  0.47095853
   0.00000000  0.25000000  0.38936505
   0.25000000  0.50000000  0.38936505
   0.00000000  0.50000000  0.30809541
   0.25000000  0.25000000  0.30809541
   0.00000000  0.24978147  0.55402750
   0.24882271  0.50000000  0.55394832
   0.00000000  0.50000000  0.47087930
   0.24994577  0.24994577  0.47095853
   0.50000000  0.75000000  0.38936505
   0.75000000  0.00000000  0.38936505
   0.50000000  0.00000000  0.30809541
   0.75000000  0.75000000  0.30809541
   0.50000000  0.75117729  0.55394832
   0.75021853  0.00000000  0.55402750
   0.50000000  0.00000000  0.47087930
   0.75005423  0.75005423  0.47095853
   0.50000000  0.25000000  0.38936505
   0.75000000  0.50000000  0.38936505
   0.50000000  0.50000000  0.30809541
   0.75000000  0.25000000  0.30809541
   0.50000000  0.24882271  0.55394832
   0.75117729  0.50000000  0.55394832
   0.50000000  0.50000000  0.47126433
   0.75005423  0.24994577  0.47095853
   0.50000000  0.50000000  0.69190459
 
 position of ions in cartesian coordinates  (Angst):
   4.22049233  4.22049233 16.81916259
   0.00000000  6.33073849  8.00000000
   2.11024616  0.00000000  8.00000000
   0.00000000  0.00000000 10.11024616
   2.11024616  6.33073849 10.11024616
   0.00000000  6.33022585 12.23368172
   2.11075880  0.00000000 12.23368172
   0.00000000  0.00000000 14.33821654
   2.10905031  6.33193435 14.33446740
   0.00000000  2.11024616  8.00000000
   2.11024616  4.22049233  8.00000000
   0.00000000  4.22049233 10.11024616
   2.11024616  2.11024616 10.11024616
   0.00000000  2.11075880 12.23368172
   2.11344006  4.22049233 12.23658877
   0.00000000  4.22049233 14.33544293
   2.10905031  2.10905031 14.33446740
   4.22049233  6.33073849  8.00000000
   6.33073849  0.00000000  8.00000000
   4.22049233  0.00000000 10.11024616
   6.33073849  6.33073849 10.11024616
   4.22049233  6.32754460 12.23658877
   6.33022585  0.00000000 12.23368172
   4.22049233  0.00000000 14.33544293
   6.33193435  6.33193435 14.33446740
   4.22049233  2.11024616  8.00000000
   6.33073849  4.22049233  8.00000000
   4.22049233  4.22049233 10.11024616
   6.33073849  2.11024616 10.11024616
   4.22049233  2.11344006 12.23658877
   6.32754460  4.22049233 12.23658877
   4.22049233  4.22049233 14.37814023
   6.33193435  2.10905031 14.33446740
   0.00000000  6.33073849 10.11024616
   2.11024616  0.00000000 10.11024616
   0.00000000  0.00000000  8.00000000
   2.11024616  6.33073849  8.00000000
   0.00000000  6.33258312 14.38586825
   2.10840153  0.00000000 14.38586825
   0.00000000  0.00000000 12.22785099
   2.10978841  6.33119624 12.22890095
   0.00000000  2.11024616 10.11024616
   2.11024616  4.22049233 10.11024616
   0.00000000  4.22049233  8.00000000
   2.11024616  2.11024616  8.00000000
   0.00000000  2.10840153 14.38586825
   2.10030867  4.22049233 14.38381232
   0.00000000  4.22049233 12.22684365
   2.10978841  2.10978841 12.22890095
   4.22049233  6.33073849 10.11024616
   6.33073849  0.00000000 10.11024616
   4.22049233  0.00000000  8.00000000
   6.33073849  6.33073849  8.00000000
   4.22049233  6.34067598 14.38381232
   6.33258312  0.00000000 14.38586825
   4.22049233  0.00000000 12.22684365
   6.33119624  6.33119624 12.22890095
   4.22049233  2.11024616 10.11024616
   6.33073849  4.22049233 10.11024616
   4.22049233  4.22049233  8.00000000
   6.33073849  2.11024616  8.00000000
   4.22049233  2.10030867 14.38381232
   6.34067598  4.22049233 14.38381232
   4.22049233  4.22049233 12.23684118
   6.33119624  2.10978841 12.22890095
   4.22049233  4.22049233 17.96598241
 


--------------------------------------------------------------------------------------------------------


 k-point   1 :   0.0000 0.0000 0.0000  plane waves:   47075
 k-point   2 :   0.5000 0.0000 0.0000  plane waves:   46954
 k-point   3 :   0.5000 0.5000 0.0000  plane waves:   46900

 maximum and minimum number of plane-waves per node :     11793    11704

 maximum number of plane-waves:     47075
 maximum index in each direction: 
   IXMAX=   15   IYMAX=   15   IZMAX=   47
   IXMIN=  -15   IYMIN=  -15   IZMIN=  -47


 parallel 3D FFT for wavefunctions:
    minimum data exchange during FFTs selected (reduces bandwidth)
 parallel 3D FFT for charge:
    minimum data exchange during FFTs selected (reduces bandwidth)

 
 Radii for the augmentation spheres in the non-local exchange
 for species   1 augmentation radius   0.874 (default was   0.699)
       energy cutoff for augmentation   2000.0
 for species   2 augmentation radius   0.912 (default was   0.730)
       energy cutoff for augmentation   2000.0
 for species   3 augmentation radius   0.846 (default was   0.677)
       energy cutoff for augmentation   2000.0

 real space projection operators:
  total allocation   :       6552.31 KBytes
  max/ min on nodes  :       1688.02       1605.90

 Maximum index for augmentation-charges in exchange          160
  SETUP_FOCK is finished

 total amount of memory used by VASP MPI-rank0    82829. kBytes
=======================================================================

   base      :      30000. kBytes
   nonl-proj :      31173. kBytes
   fftplans  :       6093. kBytes
   grid      :       5105. kBytes
   one-center:        394. kBytes
   HF        :        290. kBytes
   nonlr-proj:       2754. kBytes
   wavefun   :       7020. kBytes
 
     INWAV:  cpu time      0.0000: real time      0.0000
 Broyden mixing: mesh for mixing (old mesh)
   NGX = 31   NGY = 31   NGZ = 95
  (NGX  = 96   NGY  = 96   NGZ  =288)
  gives a total of  91295 points

 initial charge density was supplied:
 charge density of overlapping atoms calculated
 number of electron     522.0000000 magnetization 
 keeping initial charge density in first step


--------------------------------------------------------------------------------------------------------


 Maximum index for augmentation-charges          217 (set IRDMAX)


--------------------------------------------------------------------------------------------------------


    FEWALD:  cpu time      0.0020: real time      0.0020


--------------------------------------- Iteration      1(   1)  ---------------------------------------


    POTLOK:  cpu time      0.0216: real time      0.0220
    SETDIJ:  cpu time      0.0170: real time      0.0172
    TRIAL :  cpu time      7.0534: real time      7.1341
    CORREC:  cpu time      0.0003: real time      0.0003
    --------------------------------------------
      LOOP:  cpu time      7.0991: real time      7.1807

 eigenvalue-minimisations  :  3072
 total energy-change (2. order) :-0.3996198E+04  (-0.5376526E+05)
 number of electron     522.0000000 magnetization 
 augmentation part      522.0000000 magnetization 

 Free energy of the ion-electron system (eV)
  ---------------------------------------------------
  alpha Z        PSCENC =       625.96903642
  Ewald energy   TEWEN  =    294222.30544296
  -Hartree energ DENC   =   -339840.29173009
  -exchange      EXHF   =         0.00000000
  -V(xc)+E(xc)   XCENC  =      2959.51081854
  PAW double counting   =     45651.62706722   -59521.54887361
  entropy T*S    EENTRO =         0.00000000
  eigenvalues    EBANDS =    -16303.42753188
  atomic energy  EATOM  =     68209.65780148
  ---------------------------------------------------
  free energy    TOTEN  =     -3996.19796896 eV

  energy without entropy =    -3996.19796896  energy(sigma->0) =    -3996.19796896
  exchange ACFDT corr.  =         0.00000000  see jH, gK, PRB 81, 115126


--------------------------------------------------------------------------------------------------------




--------------------------------------- Iteration      1(   2)  ---------------------------------------


    TRIAL :  cpu time      6.2862: real time      6.3561
    CORREC:  cpu time      0.0003: real time      0.0003
    --------------------------------------------
      LOOP:  cpu time      6.2909: real time      6.3613

 eigenvalue-minimisations  :  2592
 total energy-change (2. order) :-0.8237606E+04  (-0.7885696E+04)
 number of electron     522.0000000 magnetization 
 augmentation part      522.0000000 magnetization 

 Free energy of the ion-electron system (eV)
  ---------------------------------------------------
  alpha Z        PSCENC =       625.96903642
  Ewald energy   TEWEN  =    294222.30544296
  -Hartree energ DENC   =   -339840.29173009
  -exchange      EXHF   =         0.00000000
  -V(xc)+E(xc)   XCENC  =      2959.51081854
  PAW double counting   =     45651.62706722   -59521.54887361
  entropy T*S    EENTRO =         0.00000000
  eigenvalues    EBANDS =    -24541.03370432
  atomic energy  EATOM  =     68209.65780148
  ---------------------------------------------------
  free energy    TOTEN  =    -12233.80414140 eV

  energy without entropy =   -12233.80414140  energy(sigma->0) =   -12233.80414140
  exchange ACFDT corr.  =         0.00000000  see jH, gK, PRB 81, 115126


--------------------------------------------------------------------------------------------------------




--------------------------------------- Iteration      1(   3)  ---------------------------------------


    TRIAL :  cpu time      6.3050: real time      6.3799
    CORREC:  cpu time      0.0005: real time      0.0005
    --------------------------------------------
      LOOP:  cpu time      6.3061: real time      6.3815

 eigenvalue-minimisations  :  3168
 total energy-change (2. order) :-0.1392445E+04  (-0.1375388E+04)
 number of electron     522.0000000 magnetization 
 augmentation part      522.0000000 magnetization 

 Free energy of the ion-electron system (eV)
  ---------------------------------------------------
  alpha Z        PSCENC =       625.96903642
  Ewald energy   TEWEN  =    294222.30544296
  -Hartree energ DENC   =   -339840.29173009
  -exchange      EXHF   =         0.00000000
  -V(xc)+E(xc)   XCENC  =      2959.51081854
  PAW double counting   =     45651.62706722   -59521.54887361
  entropy T*S    EENTRO =        -0.00001410
  eigenvalues    EBANDS =    -25933.47833293
  atomic energy  EATOM  =     68209.65780148
  ---------------------------------------------------
  free energy    TOTEN  =    -13626.24878412 eV

  energy without entropy =   -13626.24877002  energy(sigma->0) =   -13626.24877942
  exchange ACFDT corr.  =         0.00000000  see jH, gK, PRB 81, 115126


--------------------------------------------------------------------------------------------------------




--------------------------------------- Iteration      1(   4)  ---------------------------------------


    TRIAL :  cpu time      6.7688: real time      6.8455
    CORREC:  cpu time      0.0006: real time      0.0006
    --------------------------------------------
      LOOP:  cpu time      6.7699: real time      6.8473

 eigenvalue-minimisations  :  2976
 total energy-change (2. order) :-0.1277492E+03  (-0.1276868E+03)
 number of electron     522.0000000 magnetization 
 augmentation part      522.0000000 magnetization 

 Free energy of the ion-electron system (eV)
  ---------------------------------------------------
  alpha Z        PSCENC =       625.96903642
  Ewald energy   TEWEN  =    294222.30544296
  -Hartree energ DENC   =   -339840.29173009
  -exchange      EXHF   =         0.00000000
  -V(xc)+E(xc)   XCENC  =      2959.51081854
  PAW double counting   =     45651.62706722   -59521.54887361
  entropy T*S    EENTRO =        -0.00001410
  eigenvalues    EBANDS =    -26061.22750913
  atomic energy  EATOM  =     68209.65780148
  ---------------------------------------------------
  free energy    TOTEN  =    -13753.99796031 eV

  energy without entropy =   -13753.99794621  energy(sigma->0) =   -13753.99795561
  exchange ACFDT corr.  =         0.00000000  see jH, gK, PRB 81, 115126


--------------------------------------------------------------------------------------------------------




--------------------------------------- Iteration      1(   5)  ---------------------------------------


    POTLOK:  cpu time      0.0175: real time      0.0179
    SETDIJ:  cpu time      0.0125: real time      0.0126
    TRIAL :  cpu time    193.4515: real time    199.3799
    CORREC:  cpu time      0.0005: real time      0.0005
    CHARGE:  cpu time      0.0534: real time      0.0550
    --------------------------------------------
      LOOP:  cpu time    193.5360: real time    199.4672

 eigenvalue-minimisations  :  3168
 total energy-change (2. order) : 0.1212660E+05  (-0.4963691E+02)
 number of electron     522.0003276 magnetization 
 augmentation part      160.9767865 magnetization 

 Free energy of the ion-electron system (eV)
  ---------------------------------------------------
  alpha Z        PSCENC =       625.96903642
  Ewald energy   TEWEN  =    294222.30544296
  -Hartree energ DENC   =   -339840.29173009
  -exchange      EXHF   =      9301.40663239
  -V(xc)+E(xc)   XCENC  =         0.00000000
  PAW double counting   =     48441.20353077   -50628.23435972
  entropy T*S    EENTRO =        -0.00001410
  eigenvalues    EBANDS =    -31959.41429397
  atomic energy  EATOM  =     68209.65780148
  ---------------------------------------------------
  free energy    TOTEN  =     -1627.39795387 eV

  energy without entropy =    -1627.39793976  energy(sigma->0) =    -1627.39794917
  exchange ACFDT corr.  =        -0.39425960  see jH, gK, PRB 81, 115126


--------------------------------------------------------------------------------------------------------




--------------------------------------- Iteration      1(   6)  ---------------------------------------


    POTLOK:  cpu time      0.0172: real time      0.0173
    SETDIJ:  cpu time      0.0122: real time      0.0126
    TRIAL :  cpu time    179.6315: real time    185.4866
    CORREC:  cpu time    184.4132: real time    190.3421
    CHARGE:  cpu time      0.0580: real time      0.0598
    --------------------------------------------
      LOOP:  cpu time    364.1331: real time    375.9203

 eigenvalue-minimisations  :     0
 total energy-change (2. order) : 0.1555771E+04  (-0.4102911E+03)
 number of electron     522.0003626 magnetization 
 augmentation part      145.1266307 magnetization 

 Free energy of the ion-electron system (eV)
  ---------------------------------------------------
  alpha Z        PSCENC =       625.96903642
  Ewald energy   TEWEN  =    294222.30544296
  -Hartree energ DENC   =   -369621.82846886
  -exchange      EXHF   =      9345.90927202
  -V(xc)+E(xc)   XCENC  =         0.00000000
  PAW double counting   =     71609.87552886   -73857.26044490
  entropy T*S    EENTRO =         0.00000000
  eigenvalues    EBANDS =      -606.25519140
  atomic energy  EATOM  =     68209.65780148
  ---------------------------------------------------
  free energy    TOTEN  =       -71.62703753 eV

  energy without entropy =      -71.62703753  energy(sigma->0) =      -71.62703753
  exchange ACFDT corr.  =        -0.40190227  see jH, gK, PRB 81, 115126


--------------------------------------------------------------------------------------------------------




--------------------------------------- Iteration      1(   7)  ---------------------------------------


    POTLOK:  cpu time      0.0170: real time      0.0171
    SETDIJ:  cpu time      0.0123: real time      0.0125
    TRIAL :  cpu time    189.8146: real time    195.7709
    CORREC:  cpu time    185.7238: real time    191.6059
    CHARGE:  cpu time      0.0531: real time      0.0547
    --------------------------------------------
      LOOP:  cpu time    375.6216: real time    387.4625

 eigenvalue-minimisations  :     0
 total energy-change (2. order) :-0.5041248E+03  (-0.2691567E+03)
 number of electron     522.0003788 magnetization 
 augmentation part      154.9759022 magnetization 

 Free energy of the ion-electron system (eV)
  ---------------------------------------------------
  alpha Z        PSCENC =       625.96903642
  Ewald energy   TEWEN  =    294222.30544296
  -Hartree energ DENC   =   -358850.19367459
  -exchange      EXHF   =      8918.58844283
  -V(xc)+E(xc)   XCENC  =         0.00000000
  PAW double counting   =     78038.48720504   -80084.67737702
  entropy T*S    EENTRO =         0.00000000
  eigenvalues    EBANDS =    -11655.88874941
  atomic energy  EATOM  =     68209.65780148
  ---------------------------------------------------
  free energy    TOTEN  =      -575.75187231 eV

  energy without entropy =     -575.75187231  energy(sigma->0) =     -575.75187231
  exchange ACFDT corr.  =       -17.55889100  see jH, gK, PRB 81, 115126


--------------------------------------------------------------------------------------------------------




--------------------------------------- Iteration      1(   8)  ---------------------------------------


    POTLOK:  cpu time      0.0171: real time      0.0176
    SETDIJ:  cpu time      0.0124: real time      0.0125
    TRIAL :  cpu time    186.7358: real time    192.6333
    CORREC:  cpu time    187.4459: real time    193.3384
    CHARGE:  cpu time      0.0528: real time      0.0545
    --------------------------------------------
      LOOP:  cpu time    374.2649: real time    386.0580

 eigenvalue-minimisations  :     0
 total energy-change (2. order) :-0.9482292E+02  (-0.1925298E+03)
 number of electron     522.0003511 magnetization 
 augmentation part      153.3844405 magnetization 

 Free energy of the ion-electron system (eV)
  ---------------------------------------------------
  alpha Z        PSCENC =       625.96903642
  Ewald energy   TEWEN  =    294222.30544296
  -Hartree energ DENC   =   -358995.62851407
  -exchange      EXHF   =      9001.55624511
  -V(xc)+E(xc)   XCENC  =         0.00000000
  PAW double counting   =     76202.41510231   -78569.93515672
  entropy T*S    EENTRO =         0.00000000
  eigenvalues    EBANDS =    -11366.91475465
  atomic energy  EATOM  =     68209.65780148
  ---------------------------------------------------
  free energy    TOTEN  =      -670.57479716 eV

  energy without entropy =     -670.57479716  energy(sigma->0) =     -670.57479716
  exchange ACFDT corr.  =       -12.03352267  see jH, gK, PRB 81, 115126


--------------------------------------------------------------------------------------------------------




--------------------------------------- Iteration      1(   9)  ---------------------------------------


    POTLOK:  cpu time      0.0169: real time      0.0170
    SETDIJ:  cpu time      0.0127: real time      0.0128
    TRIAL :  cpu time    175.7784: real time    181.7225
    CORREC:  cpu time    193.3769: real time    199.3314
    CHARGE:  cpu time      0.0562: real time      0.0577
    --------------------------------------------
      LOOP:  cpu time    369.2421: real time    381.1430

 eigenvalue-minimisations  :     0
 total energy-change (2. order) :-0.1813326E+03  (-0.1319970E+03)
 number of electron     522.0003396 magnetization 
 augmentation part      152.5665281 magnetization 

 Free energy of the ion-electron system (eV)
  ---------------------------------------------------
  alpha Z        PSCENC =       625.96903642
  Ewald energy   TEWEN  =    294222.30544296
  -Hartree energ DENC   =   -355435.07442621
  -exchange      EXHF   =      8977.21484209
  -V(xc)+E(xc)   XCENC  =         0.00000000
  PAW double counting   =     71867.48953231   -74071.91314510
  entropy T*S    EENTRO =         0.00000000
  eigenvalues    EBANDS =    -15247.55651400
  atomic energy  EATOM  =     68209.65780148
  ---------------------------------------------------
  free energy    TOTEN  =      -851.90743004 eV

  energy without entropy =     -851.90743004  energy(sigma->0) =     -851.90743004
  exchange ACFDT corr.  =        -3.79187490  see jH, gK, PRB 81, 115126


--------------------------------------------------------------------------------------------------------




--------------------------------------- Iteration      1(  10)  ---------------------------------------


    POTLOK:  cpu time      0.0170: real time      0.0171
    SETDIJ:  cpu time      0.0125: real time      0.0126
    TRIAL :  cpu time    197.7182: real time    203.7340
    CORREC:  cpu time    180.9688: real time    186.8120
    CHARGE:  cpu time      0.0529: real time      0.0543
    --------------------------------------------
      LOOP:  cpu time    378.7702: real time    390.6348

 eigenvalue-minimisations  :     0
 total energy-change (2. order) :-0.1355576E+03  (-0.7661416E+02)
 number of electron     522.0003514 magnetization 
 augmentation part      155.4835070 magnetization 

 Free energy of the ion-electron system (eV)
  ---------------------------------------------------
  alpha Z        PSCENC =       625.96903642
  Ewald energy   TEWEN  =    294222.30544296
  -Hartree energ DENC   =   -348082.51194812
  -exchange      EXHF   =      8935.30167441
  -V(xc)+E(xc)   XCENC  =         0.00000000
  PAW double counting   =     68835.36381393   -70963.79182768
  entropy T*S    EENTRO =         0.00000000
  eigenvalues    EBANDS =    -22769.75905356
  atomic energy  EATOM  =     68209.65780148
  ---------------------------------------------------
  free energy    TOTEN  =      -987.46506017 eV

  energy without entropy =     -987.46506017  energy(sigma->0) =     -987.46506017
  exchange ACFDT corr.  =        -0.19566841  see jH, gK, PRB 81, 115126


--------------------------------------------------------------------------------------------------------




--------------------------------------- Iteration      1(  11)  ---------------------------------------


    POTLOK:  cpu time      0.0168: real time      0.0169
    SETDIJ:  cpu time      0.0125: real time      0.0126
    TRIAL :  cpu time    171.8430: real time    177.7216
    CORREC:  cpu time    178.3475: real time    184.2102
    CHARGE:  cpu time      0.0568: real time      0.0585
    --------------------------------------------
      LOOP:  cpu time    350.2775: real time    362.0214

 eigenvalue-minimisations  :     0
 total energy-change (2. order) :-0.4574694E+02  (-0.7017025E+02)
 number of electron     522.0003598 magnetization 
 augmentation part      155.0133535 magnetization 

 Free energy of the ion-electron system (eV)
  ---------------------------------------------------
  alpha Z        PSCENC =       625.96903642
  Ewald energy   TEWEN  =    294222.30544296
  -Hartree energ DENC   =   -347333.47867794
  -exchange      EXHF   =      8951.72785823
  -V(xc)+E(xc)   XCENC  =         0.00000000
  PAW double counting   =     69723.84204626   -71973.79126277
  entropy T*S    EENTRO =         0.00000000
  eigenvalues    EBANDS =    -23459.44424002
  atomic energy  EATOM  =     68209.65780148
  ---------------------------------------------------
  free energy    TOTEN  =     -1033.21199538 eV

  energy without entropy =    -1033.21199538  energy(sigma->0) =    -1033.21199538
  exchange ACFDT corr.  =         0.00000000  see jH, gK, PRB 81, 115126


--------------------------------------------------------------------------------------------------------




--------------------------------------- Iteration      1(  12)  ---------------------------------------


    POTLOK:  cpu time      0.0170: real time      0.0172
    SETDIJ:  cpu time      0.0124: real time      0.0125
    TRIAL :  cpu time    210.0907: real time    216.0398
    CORREC:  cpu time    194.4939: real time    200.4407
    CHARGE:  cpu time      0.0561: real time      0.0575
    --------------------------------------------
      LOOP:  cpu time    404.6711: real time    416.5692

 eigenvalue-minimisations  :     0
 total energy-change (2. order) :-0.5858748E+02  (-0.4848657E+02)
 number of electron     522.0003581 magnetization 
 augmentation part      151.9534152 magnetization 

 Free energy of the ion-electron system (eV)
  ---------------------------------------------------
  alpha Z        PSCENC =       625.96903642
  Ewald energy   TEWEN  =    294222.30544296
  -Hartree energ DENC   =   -348172.43730229
  -exchange      EXHF   =      8953.68784536
  -V(xc)+E(xc)   XCENC  =         0.00000000
  PAW double counting   =     70922.72470418   -73191.40599032
  entropy T*S    EENTRO =         0.00000000
  eigenvalues    EBANDS =    -22662.30101764
  atomic energy  EATOM  =     68209.65780148
  ---------------------------------------------------
  free energy    TOTEN  =     -1091.79947986 eV

  energy without entropy =    -1091.79947986  energy(sigma->0) =    -1091.79947986
  exchange ACFDT corr.  =         0.00000000  see jH, gK, PRB 81, 115126


--------------------------------------------------------------------------------------------------------




--------------------------------------- Iteration      1(  13)  ---------------------------------------


    POTLOK:  cpu time      0.0169: real time      0.0170
    SETDIJ:  cpu time      0.0125: real time      0.0126
    TRIAL :  cpu time    185.6303: real time    191.5595
    CORREC:  cpu time    197.5365: real time    203.5115
    CHARGE:  cpu time      0.0724: real time      0.0739
    --------------------------------------------
      LOOP:  cpu time    383.2700: real time    395.1763

 eigenvalue-minimisations  :     0
 total energy-change (2. order) :-0.4559456E+02  (-0.3170619E+02)
 number of electron     522.0003619 magnetization 
 augmentation part      152.9272942 magnetization 

 Free energy of the ion-electron system (eV)
  ---------------------------------------------------
  alpha Z        PSCENC =       625.96903642
  Ewald energy   TEWEN  =    294222.30544296
  -Hartree energ DENC   =   -348942.79782001
  -exchange      EXHF   =      8942.56899496
  -V(xc)+E(xc)   XCENC  =         0.00000000
  PAW double counting   =     71344.31053386   -73523.41102654
  entropy T*S    EENTRO =         0.00000000
  eigenvalues    EBANDS =    -22015.99699926
  atomic energy  EATOM  =     68209.65780148
  ---------------------------------------------------
  free energy    TOTEN  =     -1137.39403613 eV

  energy without entropy =    -1137.39403613  energy(sigma->0) =    -1137.39403613
  exchange ACFDT corr.  =         0.00000000  see jH, gK, PRB 81, 115126


--------------------------------------------------------------------------------------------------------




--------------------------------------- Iteration      1(  14)  ---------------------------------------


    POTLOK:  cpu time      0.0168: real time      0.0169
    SETDIJ:  cpu time      0.0128: real time      0.0129
    TRIAL :  cpu time    199.6897: real time    205.6227
    CORREC:  cpu time    184.2986: real time    190.1650
    CHARGE:  cpu time      0.0532: real time      0.0547
    --------------------------------------------
      LOOP:  cpu time    384.0720: real time    395.8739

 eigenvalue-minimisations  :     0
 total energy-change (2. order) :-0.3052146E+02  (-0.2103669E+02)
 number of electron     522.0003603 magnetization 
 augmentation part      154.4776531 magnetization 

 Free energy of the ion-electron system (eV)
  ---------------------------------------------------
  alpha Z        PSCENC =       625.96903642
  Ewald energy   TEWEN  =    294222.30544296
  -Hartree energ DENC   =   -349579.41109078
  -exchange      EXHF   =      8966.48137556
  -V(xc)+E(xc)   XCENC  =         0.00000000
  PAW double counting   =     71059.73253567   -73281.26966918
  entropy T*S    EENTRO =         0.00000000
  eigenvalues    EBANDS =    -21391.38092642
  atomic energy  EATOM  =     68209.65780148
  ---------------------------------------------------
  free energy    TOTEN  =     -1167.91549428 eV

  energy without entropy =    -1167.91549428  energy(sigma->0) =    -1167.91549428
  exchange ACFDT corr.  =         0.00000000  see jH, gK, PRB 81, 115126


--------------------------------------------------------------------------------------------------------




--------------------------------------- Iteration      1(  15)  ---------------------------------------


    POTLOK:  cpu time      0.0173: real time      0.0174
    SETDIJ:  cpu time      0.0124: real time      0.0128
    TRIAL :  cpu time    186.7392: real time    192.6444
    CORREC:  cpu time    172.4201: real time    178.2715
    CHARGE:  cpu time      0.0533: real time      0.0547
    --------------------------------------------
      LOOP:  cpu time    359.2431: real time    371.0024

 eigenvalue-minimisations  :     0
 total energy-change (2. order) :-0.2117073E+02  (-0.1205620E+02)
 number of electron     522.0003522 magnetization 
 augmentation part      153.7017796 magnetization 

 Free energy of the ion-electron system (eV)
  ---------------------------------------------------
  alpha Z        PSCENC =       625.96903642
  Ewald energy   TEWEN  =    294222.30544296
  -Hartree energ DENC   =   -349966.81050539
  -exchange      EXHF   =      8993.89881965
  -V(xc)+E(xc)   XCENC  =         0.00000000
  PAW double counting   =     69984.81324909   -72242.22595521
  entropy T*S    EENTRO =         0.00000000
  eigenvalues    EBANDS =    -21016.69410922
  atomic energy  EATOM  =     68209.65780148
  ---------------------------------------------------
  free energy    TOTEN  =     -1189.08622021 eV

  energy without entropy =    -1189.08622021  energy(sigma->0) =    -1189.08622021
  exchange ACFDT corr.  =         0.00000000  see jH, gK, PRB 81, 115126


--------------------------------------------------------------------------------------------------------




--------------------------------------- Iteration      1(  16)  ---------------------------------------


    POTLOK:  cpu time      0.0174: real time      0.0176
    SETDIJ:  cpu time      0.0126: real time      0.0127
    TRIAL :  cpu time    197.5160: real time    203.4044
    CORREC:  cpu time    191.0168: real time    196.9120
    CHARGE:  cpu time      0.0528: real time      0.0541
    --------------------------------------------
      LOOP:  cpu time    388.6169: real time    400.4023

 eigenvalue-minimisations  :     0
 total energy-change (2. order) :-0.1199933E+02  (-0.6609896E+01)
 number of electron     522.0003542 magnetization 
 augmentation part      154.2931428 magnetization 

 Free energy of the ion-electron system (eV)
  ---------------------------------------------------
  alpha Z        PSCENC =       625.96903642
  Ewald energy   TEWEN  =    294222.30544296
  -Hartree energ DENC   =   -349961.71365442
  -exchange      EXHF   =      8994.34115876
  -V(xc)+E(xc)   XCENC  =         0.00000000
  PAW double counting   =     69094.52818790   -71295.95350755
  entropy T*S    EENTRO =         0.00000000
  eigenvalues    EBANDS =    -21090.22001124
  atomic energy  EATOM  =     68209.65780148
  ---------------------------------------------------
  free energy    TOTEN  =     -1201.08554569 eV

  energy without entropy =    -1201.08554569  energy(sigma->0) =    -1201.08554569
  exchange ACFDT corr.  =         0.00000000  see jH, gK, PRB 81, 115126


--------------------------------------------------------------------------------------------------------




--------------------------------------- Iteration      1(  17)  ---------------------------------------


    POTLOK:  cpu time      0.1852: real time      0.1866
    SETDIJ:  cpu time      0.1613: real time      0.1624
    TRIAL :  cpu time    184.7265: real time    190.6548
    CORREC:  cpu time    191.5413: real time    197.4593
    CHARGE:  cpu time      0.2111: real time      0.2137
    --------------------------------------------
      LOOP:  cpu time    376.8263: real time    388.6784

 eigenvalue-minimisations  :     0
 total energy-change (2. order) :-0.6616819E+01  (-0.3646125E+01)
 number of electron     522.0003565 magnetization 
 augmentation part      154.1621085 magnetization 

 Free energy of the ion-electron system (eV)
  ---------------------------------------------------
  alpha Z        PSCENC =       625.96903642
  Ewald energy   TEWEN  =    294222.30544296
  -Hartree energ DENC   =   -349982.99606256
  -exchange      EXHF   =      8997.67215540
  -V(xc)+E(xc)   XCENC  =         0.00000000
  PAW double counting   =     69057.79257127   -71282.19181964
  entropy T*S    EENTRO =         0.00000000
  eigenvalues    EBANDS =    -21055.91148980
  atomic energy  EATOM  =     68209.65780148
  ---------------------------------------------------
  free energy    TOTEN  =     -1207.70236447 eV

  energy without entropy =    -1207.70236447  energy(sigma->0) =    -1207.70236447
  exchange ACFDT corr.  =         0.00000000  see jH, gK, PRB 81, 115126


--------------------------------------------------------------------------------------------------------




--------------------------------------- Iteration      1(  18)  ---------------------------------------


    POTLOK:  cpu time      0.0177: real time      0.0178
    SETDIJ:  cpu time      0.0126: real time      0.0127
    TRIAL :  cpu time    182.6470: real time    188.5327
    CORREC:  cpu time    197.9430: real time    203.8544
    CHARGE:  cpu time      0.1149: real time      0.1169
    --------------------------------------------
      LOOP:  cpu time    380.7365: real time    392.5364

 eigenvalue-minimisations  :     0
 total energy-change (2. order) :-0.3646551E+01  (-0.2074252E+01)
 number of electron     522.0003569 magnetization 
 augmentation part      153.8131655 magnetization 

 Free energy of the ion-electron system (eV)
  ---------------------------------------------------
  alpha Z        PSCENC =       625.96903642
[...]
    300       8.5133      0.00000
    301       8.6139      0.00000
    302       8.6684      0.00000
    303       8.6692      0.00000
    304       8.7448      0.00000
    305       8.7746      0.00000
    306       8.8767      0.00000
    307       8.9549      0.00000
    308       8.9894      0.00000
    309       9.0023      0.00000
    310       9.0903      0.00000
    311       9.1890      0.00000
    312       9.3264      0.00000
    313       9.4364      0.00000
    314       9.5495      0.00000
    315       9.7878      0.00000
    316       9.9697      0.00000
    317      10.0484      0.00000
    318      10.0597      0.00000
    319      10.1388      0.00000
    320      10.1694      0.00000
    321      10.2146      0.00000
    322      10.2406      0.00000
    323      10.3295      0.00000
    324      10.3805      0.00000
    325      10.5640      0.00000
    326      10.6743      0.00000
    327      10.9550      0.00000
    328      11.1236      0.00000
    329      11.1850      0.00000
    330      11.1876      0.00000
    331      11.2109      0.00000
    332      11.2323      0.00000
    333      11.3145      0.00000
    334      11.3816      0.00000
    335      11.6135      0.00000
    336      11.7375      0.00000
    337      11.7715      0.00000
    338      11.9840      0.00000
    339      12.1793      0.00000
    340      12.2348      0.00000
    341      12.2500      0.00000
    342      12.4045      0.00000
    343      12.4932      0.00000
    344      12.5824      0.00000
    345      12.6143      0.00000
    346      12.7062      0.00000
    347      12.8894      0.00000
    348      12.8940      0.00000
    349      13.0380      0.00000
    350      13.1678      0.00000
    351      13.2769      0.00000
    352      13.3621      0.00000
    353      13.4181      0.00000
    354      13.7499      0.00000
    355      13.7675      0.00000
    356      13.8909      0.00000
    357      14.0153      0.00000
    358      14.0274      0.00000
    359      14.0778      0.00000
    360      14.1441      0.00000
    361      14.1477      0.00000
    362      14.1725      0.00000
    363      14.2137      0.00000
    364      14.2560      0.00000
    365      14.3563      0.00000
    366      14.4598      0.00000
    367      14.4660      0.00000
    368      14.6448      0.00000
    369      14.6782      0.00000
    370      14.8231      0.00000
    371      14.8691      0.00000
    372      14.8897      0.00000
    373      15.0021      0.00000
    374      15.1262      0.00000
    375      15.2520      0.00000
    376      15.3527      0.00000
    377      15.5655      0.00000
    378      15.7770      0.00000
    379      15.8422      0.00000
    380      16.1067      0.00000
    381      16.2203      0.00000
    382      16.3688      0.00000
    383      16.6376      0.00000
    384      16.8335      0.00000


--------------------------------------------------------------------------------------------------------


 soft charge-density along one line, spin component           1
         0         1         2         3         4         5         6         7         8         9
 total charge-density along one line
 
 pseudopotential strength for first ion, spin component:           1
  9.218 -14.092  -0.000   0.029  -0.000  -0.000   0.141  -0.000
-14.092  24.355   0.000  -0.036   0.000   0.000  -0.257   0.000
 -0.000   0.000  -3.587  -0.000   0.000  -0.619   0.000  -0.000
  0.029  -0.036  -0.000  -3.530  -0.000   0.000  -0.845   0.000
 -0.000   0.000   0.000  -0.000  -3.587  -0.000   0.000  -0.619
 -0.000   0.000  -0.619   0.000  -0.000  51.364  -0.000   0.000
  0.141  -0.257   0.000  -0.845   0.000  -0.000  51.875  -0.000
 -0.000   0.000  -0.000   0.000  -0.619   0.000  -0.000  51.364
 total augmentation occupancy for first ion, spin component:           1
  1.963   0.041   0.000  -0.105   0.000  -0.000   0.046  -0.000
  0.041   0.002  -0.000   0.039  -0.000   0.000   0.004  -0.000
  0.000  -0.000   0.564  -0.000   0.000   0.030  -0.000   0.000
 -0.105   0.039  -0.000   1.789  -0.000   0.000   0.092  -0.000
  0.000  -0.000   0.000  -0.000   0.564  -0.000   0.000   0.030
 -0.000   0.000   0.030   0.000  -0.000   0.002   0.000  -0.000
  0.046   0.004  -0.000   0.092   0.000   0.000   0.007   0.000
 -0.000  -0.000   0.000  -0.000   0.030  -0.000   0.000   0.002


------------------------ aborting loop because EDIFF is reached ----------------------------------------


    FORLOC:  cpu time      0.0016: real time      0.0016
    FORHF :  cpu time    131.4075: real time    135.2769
    FORNL :  cpu time      0.9775: real time      0.9849
    FORCOR:  cpu time      0.0297: real time      0.0304
    OFIELD:  cpu time      0.0001: real time      0.0001

 VOLUME and BASIS-vectors are now :
 -----------------------------------------------------------------------------
  energy-cutoff  :      500.00
  volume of cell :     1850.08
      direct lattice vectors                 reciprocal lattice vectors
     8.440984654  0.000000000  0.000000000     0.118469591  0.000000000  0.000000000
     0.000000000  8.440984654  0.000000000     0.000000000  0.118469591  0.000000000
     0.000000000  0.000000000 25.965982408     0.000000000  0.000000000  0.038511926

  length of vectors
     8.440984654  8.440984654 25.965982408     0.118469591  0.118469591  0.038511926


 FORCES acting on ions:
    Electron-Ion                     Ewald-Force                    Non-Local-Force
 -----------------------------------------------------------------------------------------------
   0.109E-02 0.173E-02 -.123E+04   0.101E-13 0.410E-14 0.121E+04   0.310E-20 -.526E-20 0.270E+02
   0.407E-04 -.109E+00 0.332E+04   0.157E-12 0.108E+00 -.331E+04   0.724E-21 0.152E-03 -.229E+00
   0.109E+00 -.629E-04 0.332E+04   -.108E+00 -.267E-13 -.331E+04   -.152E-03 0.157E-22 -.229E+00
   0.468E-04 0.532E-04 0.115E+04   -.783E-13 0.710E-13 -.115E+04   -.738E-21 0.383E-20 0.319E-01
   0.516E+00 -.516E+00 0.115E+04   -.511E+00 0.511E+00 -.115E+04   -.779E-03 0.779E-03 0.317E-01
   -.380E-04 -.349E+01 -.103E+04   -.121E-12 0.346E+01 0.103E+04   0.111E-20 0.365E-03 -.409E-01
   0.349E+01 0.235E-04 -.103E+04   -.346E+01 0.674E-13 0.103E+04   -.365E-03 -.432E-21 -.409E-01
   0.322E-04 0.100E-03 -.320E+04   0.316E-10 -.316E-10 0.319E+04   0.277E-20 -.654E-21 0.941E-01
   0.225E+02 -.225E+02 -.317E+04   -.227E+02 0.227E+02 0.317E+04   0.102E-01 -.102E-01 0.122E+00
   0.958E-05 0.109E+00 0.332E+04   0.408E-13 -.108E+00 -.331E+04   0.276E-21 -.152E-03 -.229E+00
   0.102E+00 -.521E-04 0.332E+04   -.101E+00 0.977E-13 -.331E+04   0.796E-04 0.563E-22 -.227E+00
   -.615E-04 -.339E-04 0.115E+04   -.423E-13 0.355E-13 -.115E+04   0.773E-21 0.626E-21 0.277E-01
   0.516E+00 0.516E+00 0.115E+04   -.511E+00 -.511E+00 -.115E+04   -.779E-03 -.779E-03 0.317E-01
   0.111E-04 0.349E+01 -.103E+04   -.171E-12 -.346E+01 0.103E+04   -.635E-21 -.365E-03 -.409E-01
   0.482E+01 -.809E-04 -.102E+04   -.471E+01 0.320E-13 0.102E+04   0.623E-02 0.186E-20 -.438E-01
   -.178E-03 0.497E-04 -.318E+04   -.281E-13 0.462E-13 0.318E+04   -.132E-20 -.519E-20 0.110E+00
   0.225E+02 0.225E+02 -.317E+04   -.227E+02 -.227E+02 0.317E+04   0.102E-01 0.102E-01 0.122E+00
   -.540E-04 -.102E+00 0.332E+04   -.285E-13 0.101E+00 -.331E+04   0.326E-20 -.796E-04 -.227E+00
   -.109E+00 -.355E-04 0.332E+04   0.108E+00 0.125E-13 -.331E+04   0.152E-03 -.263E-20 -.229E+00
   0.473E-04 -.603E-04 0.115E+04   -.674E-13 0.391E-13 -.115E+04   -.662E-21 -.403E-21 0.277E-01
   -.516E+00 -.516E+00 0.115E+04   0.511E+00 0.511E+00 -.115E+04   0.779E-03 0.779E-03 0.317E-01
   -.850E-04 -.482E+01 -.102E+04   0.213E-13 0.471E+01 0.102E+04   -.331E-21 -.623E-02 -.438E-01
   -.349E+01 -.294E-04 -.103E+04   0.346E+01 -.293E-13 0.103E+04   0.365E-03 -.719E-21 -.409E-01
   -.730E-04 -.214E-04 -.318E+04   -.852E-13 -.274E-13 0.318E+04   -.246E-20 0.398E-21 0.110E+00
   -.225E+02 -.225E+02 -.317E+04   0.227E+02 0.227E+02 0.317E+04   -.102E-01 -.102E-01 0.122E+00
   -.118E-03 0.102E+00 0.332E+04   -.639E-13 -.101E+00 -.331E+04   -.165E-21 0.796E-04 -.227E+00
   -.102E+00 -.141E-04 0.332E+04   0.101E+00 0.121E-12 -.331E+04   -.796E-04 0.491E-20 -.227E+00
   -.396E-04 0.351E-04 0.115E+04   -.160E-12 0.110E-12 -.115E+04   -.478E-23 -.623E-23 0.337E-01
   -.516E+00 0.516E+00 0.115E+04   0.511E+00 -.511E+00 -.115E+04   0.779E-03 -.779E-03 0.317E-01
   0.471E-04 0.482E+01 -.102E+04   -.283E-13 -.471E+01 0.102E+04   0.962E-21 0.623E-02 -.438E-01
   -.482E+01 0.179E-04 -.102E+04   0.471E+01 -.568E-13 0.102E+04   -.623E-02 0.846E-21 -.438E-01
   -.816E-04 0.845E-05 -.310E+04   0.755E-16 0.963E-13 0.309E+04   -.159E-19 -.446E-20 0.105E+00
   -.225E+02 0.225E+02 -.317E+04   0.227E+02 -.227E+02 0.317E+04   -.102E-01 0.102E-01 0.122E+00
   -.106E-03 -.373E+00 0.687E+03   -.953E-14 0.362E+00 -.687E+03   -.264E-20 0.878E-02 0.218E-01
   0.373E+00 -.176E-03 0.687E+03   -.362E+00 -.137E-12 -.687E+03   -.878E-02 -.212E-20 0.218E-01
   -.514E-04 -.494E-04 0.201E+04   0.757E-14 -.688E-13 -.201E+04   0.281E-21 -.555E-21 0.978E+00
   0.624E-01 -.626E-01 0.201E+04   -.614E-01 0.614E-01 -.201E+04   -.765E-03 0.765E-03 0.979E+00
   -.757E-04 -.721E+01 -.196E+04   -.444E-13 0.715E+01 0.196E+04   0.247E-21 0.342E-01 -.264E+01
   0.721E+01 0.164E-03 -.196E+04   -.715E+01 -.773E-13 0.196E+04   -.342E-01 -.244E-20 -.264E+01
   -.774E-04 0.172E-03 -.613E+03   -.351E-13 0.284E-13 0.613E+03   -.180E-20 -.160E-20 0.349E+00
   0.247E+01 -.247E+01 -.608E+03   -.246E+01 0.246E+01 0.607E+03   -.529E-02 0.529E-02 0.384E+00
   0.827E-04 0.373E+00 0.687E+03   0.701E-14 -.362E+00 -.687E+03   -.409E-20 -.878E-02 0.218E-01
   0.349E+00 0.108E-03 0.687E+03   -.402E+00 -.631E-13 -.687E+03   0.390E-01 0.109E-21 0.189E-01
   -.186E-03 -.166E-03 0.201E+04   -.657E-13 -.733E-13 -.201E+04   0.289E-20 0.415E-20 0.977E+00
   0.625E-01 0.622E-01 0.201E+04   -.614E-01 -.614E-01 -.201E+04   -.765E-03 -.765E-03 0.979E+00
   -.139E-03 0.721E+01 -.196E+04   -.722E-13 -.715E+01 0.196E+04   -.306E-20 -.342E-01 -.264E+01
   0.232E+02 0.204E-03 -.193E+04   -.229E+02 0.995E-11 0.193E+04   -.187E+00 0.479E-20 -.260E+01
   0.841E-04 -.172E-03 -.608E+03   0.496E-13 -.497E-13 0.607E+03   -.148E-20 -.476E-21 0.358E+00
   0.247E+01 0.247E+01 -.608E+03   -.246E+01 -.246E+01 0.607E+03   -.529E-02 -.529E-02 0.384E+00
   -.113E-03 -.349E+00 0.687E+03   0.106E-11 0.402E+00 -.687E+03   -.144E-20 -.390E-01 0.189E-01
   -.373E+00 -.906E-04 0.687E+03   0.362E+00 -.121E-12 -.687E+03   0.878E-02 0.347E-21 0.218E-01
   0.437E-03 -.862E-04 0.201E+04   0.453E-13 -.915E-13 -.201E+04   0.511E-20 0.237E-20 0.977E+00
   -.625E-01 -.624E-01 0.201E+04   0.614E-01 0.614E-01 -.201E+04   0.765E-03 0.765E-03 0.979E+00
   -.998E-05 -.232E+02 -.193E+04   -.120E-10 0.229E+02 0.193E+04   -.210E-20 0.187E+00 -.260E+01
   -.721E+01 0.216E-04 -.196E+04   0.715E+01 0.710E-14 0.196E+04   0.342E-01 0.382E-20 -.264E+01
   0.479E-04 -.272E-03 -.608E+03   -.710E-13 0.730E-14 0.607E+03   0.766E-22 0.248E-20 0.358E+00
   -.247E+01 -.247E+01 -.608E+03   0.246E+01 0.246E+01 0.607E+03   0.529E-02 0.529E-02 0.384E+00
   -.151E-03 0.349E+00 0.687E+03   0.110E-11 -.402E+00 -.687E+03   0.141E-20 0.390E-01 0.189E-01
   -.349E+00 -.159E-03 0.687E+03   0.402E+00 -.107E-11 -.687E+03   -.390E-01 0.491E-20 0.189E-01
   0.375E-03 -.184E-03 0.201E+04   0.821E-13 -.613E-13 -.201E+04   -.198E-20 -.186E-21 0.978E+00
   -.620E-01 0.624E-01 0.201E+04   0.614E-01 -.614E-01 -.201E+04   0.765E-03 -.765E-03 0.979E+00
   0.359E-03 0.232E+02 -.193E+04   -.101E-10 -.229E+02 0.193E+04   -.961E-21 -.187E+00 -.260E+01
   -.232E+02 0.145E-03 -.193E+04   0.229E+02 0.992E-11 0.193E+04   0.187E+00 -.156E-21 -.260E+01
   0.127E-03 0.459E-03 -.610E+03   0.640E-13 0.142E-13 0.610E+03   0.339E-20 0.304E-20 0.289E-01
   -.247E+01 0.247E+01 -.608E+03   0.246E+01 -.246E+01 0.607E+03   0.529E-02 -.529E-02 0.384E+00
   0.178E-03 0.104E-02 -.207E+04   0.130E-13 -.367E-15 0.213E+04   0.194E-20 -.143E-19 -.331E+02
 -----------------------------------------------------------------------------------------------
   -.539E-03 0.126E-02 0.583E+02   0.286E-12 -.419E-12 0.546E-11   -.295E-16 0.259E-17 -.175E+02
 
 
 POSITION                                       TOTAL-FORCE (eV/Angst)
 -----------------------------------------------------------------------------------
      4.22049      4.22049     16.81916         0.000000     -0.000000      6.371131
      0.00000      6.33074      8.00000         0.000000     -0.000109      0.701518
      2.11025      0.00000      8.00000         0.000109     -0.000000      0.701518
      0.00000      0.00000     10.11025         0.000000     -0.000000      0.001955
      2.11025      6.33074     10.11025         0.001312     -0.001312      0.003066
      0.00000      6.33023     12.23368         0.000000     -0.001563     -0.004687
      2.11076      0.00000     12.23368         0.001563     -0.000000     -0.004687
      0.00000      0.00000     14.33822         0.000000     -0.000000     -0.255565
      2.10905      6.33193     14.33447        -0.027044      0.027044     -0.302138
      0.00000      2.11025      8.00000         0.000000      0.000109      0.701518
      2.11025      4.22049      8.00000         0.000236     -0.000000      0.702297
      0.00000      4.22049     10.11025         0.000000     -0.000000      0.013873
      2.11025      2.11025     10.11025         0.001312      0.001312      0.003066
      0.00000      2.11076     12.23368         0.000000      0.001563     -0.004687
      2.11344      4.22049     12.23659        -0.007952     -0.000000      0.012478
      0.00000      4.22049     14.33544         0.000000     -0.000000     -0.274268
      2.10905      2.10905     14.33447        -0.027044     -0.027044     -0.302138
      4.22049      6.33074      8.00000         0.000000     -0.000236      0.702297
      6.33074      0.00000      8.00000        -0.000109     -0.000000      0.701518
      4.22049      0.00000     10.11025         0.000000     -0.000000      0.013873
      6.33074      6.33074     10.11025        -0.001312     -0.001312      0.003066
      4.22049      6.32754     12.23659         0.000000      0.007952      0.012478
      6.33023      0.00000     12.23368        -0.001563     -0.000000     -0.004687
      4.22049      0.00000     14.33544         0.000000     -0.000000     -0.274268
      6.33193      6.33193     14.33447         0.027044      0.027044     -0.302138
      4.22049      2.11025      8.00000         0.000000      0.000236      0.702297
      6.33074      4.22049      8.00000        -0.000236     -0.000000      0.702297
      4.22049      4.22049     10.11025         0.000000     -0.000000      0.011371
      6.33074      2.11025     10.11025        -0.001312      0.001312      0.003066
      4.22049      2.11344     12.23659         0.000000     -0.007952      0.012478
      6.32754      4.22049     12.23659         0.007952     -0.000000      0.012478
      4.22049      4.22049     14.37814         0.000000     -0.000000     -0.420465
      6.33193      2.10905     14.33447         0.027044     -0.027044     -0.302138
      0.00000      6.33074     10.11025         0.000000      0.003327      0.060710
      2.11025      0.00000     10.11025        -0.003327     -0.000000      0.060710
      0.00000      0.00000      8.00000         0.000000     -0.000000     -0.452424
      2.11025      6.33074      8.00000        -0.000287      0.000287     -0.452324
      0.00000      6.33258     14.38587         0.000000      0.000709     -0.157143
      2.10840      0.00000     14.38587        -0.000709     -0.000000     -0.157143
      0.00000      0.00000     12.22785         0.000000     -0.000000      0.088922
      2.10979      6.33120     12.22890         0.001356     -0.001356      0.084594
      0.00000      2.11025     10.11025         0.000000     -0.003327      0.060710
      2.11025      4.22049     10.11025         0.013092     -0.000000      0.068727
      0.00000      4.22049      8.00000         0.000000     -0.000000     -0.452728
      2.11025      2.11025      8.00000        -0.000287     -0.000287     -0.452324
      0.00000      2.10840     14.38587         0.000000     -0.000709     -0.157143
      2.10031      4.22049     14.38381        -0.008152     -0.000000     -0.143310
      0.00000      4.22049     12.22684         0.000000     -0.000000      0.086435
      2.10979      2.10979     12.22890         0.001356      0.001356      0.084594
      4.22049      6.33074     10.11025         0.000000     -0.013092      0.068727
      6.33074      0.00000     10.11025         0.003327     -0.000000      0.060710
      4.22049      0.00000      8.00000         0.000000     -0.000000     -0.452728
      6.33074      6.33074      8.00000         0.000287      0.000287     -0.452324
      4.22049      6.34068     14.38381         0.000000      0.008152     -0.143310
      6.33258      0.00000     14.38587         0.000709     -0.000000     -0.157143
      4.22049      0.00000     12.22684         0.000000     -0.000000      0.086435
      6.33120      6.33120     12.22890        -0.001356     -0.001356      0.084594
      4.22049      2.11025     10.11025         0.000000      0.013092      0.068727
      6.33074      4.22049     10.11025        -0.013092     -0.000000      0.068727
      4.22049      4.22049      8.00000         0.000000     -0.000000     -0.452349
      6.33074      2.11025      8.00000         0.000287     -0.000287     -0.452324
      4.22049      2.10031     14.38381         0.000000     -0.008152     -0.143310
      6.34068      4.22049     14.38381         0.008152     -0.000000     -0.143310
      4.22049      4.22049     12.23684         0.000000     -0.000000      0.048850
      6.33120      2.10979     12.22890        -0.001356      0.001356      0.084594
      4.22049      4.22049     17.96598         0.000000     -0.000000     -5.983202
 -----------------------------------------------------------------------------------
    total drift:                               -0.000539      0.001257      0.058730


--------------------------------------------------------------------------------------------------------



  FREE ENERGIE OF THE ION-ELECTRON SYSTEM (eV)
  ---------------------------------------------------
  free  energy   TOTEN  =     -1216.46199592 eV

  energy  without entropy=    -1216.46199592  energy(sigma->0) =    -1216.46199592
 


--------------------------------------------------------------------------------------------------------


    POTLOK:  cpu time      0.0306: real time      0.0308


--------------------------------------------------------------------------------------------------------


 writing wavefunctions
     LOOP+:  cpu time  13229.9133: real time  13659.9863
    4ORBIT:  cpu time      0.0000: real time      0.0000

 total amount of memory used by VASP MPI-rank0   279708. kBytes
=======================================================================

   base      :      30000. kBytes
   nonl-proj :      31173. kBytes
   fftplans  :       6093. kBytes
   grid      :       5105. kBytes
   one-center:        394. kBytes
   HF        :        290. kBytes
   nonlr-proj:       4794. kBytes
   wavefun   :       7020. kBytes
   fock_wrk  :     194839. kBytes
 
  
  
 General timing and accounting informations for this job:
 ========================================================
  
                  Total CPU time used (sec):    13239.537
                            User time (sec):    12972.985
                          System time (sec):      266.552
                         Elapsed time (sec):    13669.583
  
                   Maximum memory used (kb):     1456680.
                   Average memory used (kb):          N/A
  
                          Minor page faults:     20947921
                          Major page faults:            0
                 Voluntary context switches:        97779
