 vasp.6.3.0 20Jan22 (build Apr  1 2022 16:44:48) complex                         
 executed on        HPECrayEX_GCC date 2023.05.17  13:33:27
 running  512 mpi-ranks, with    1 threads/rank
 distrk:  each k-point on  256 cores,    2 groups
 distr:  one band on NCORE=   4 cores,   64 groups


--------------------------------------------------------------------------------------------------------


 INCAR:
   SYSTEM = MgO-rocksalt
   ISMEAR = 0
   SIGMA = 0.05
   EDIFF = 1E-6
   ALGO = ALL
   ISTART = 0
   IBRION = -1
   NSW = 0
   ISYM = 2
   ISIF = 2
   EDIFFG = -0.01
   DIPOL = 0.5 0.5 0.5
   IDIPOL = 3
   LDIPOL = .TRUE.
   GGA = PE
   IVDW = 1
   VDW_C6 = 1.75 0.70 0.63 0.70
   VDW_R0 = 1.452 1.342 1.243 1.342
   ENCUT = 600
   PREC = Normal
   LASPH = .TRUE.
   LREAL = .FALSE.
   ISPIN = 1
   NELM = 200
   NELMIN = 8
   NCORE = 4
   KPAR = 2
   LWAVE = .FALSE.
   LCHARG = .FALSE.

 POTCAR:    PAW_PBE C 08Apr2002                   
 POTCAR:    PAW_PBE O 08Apr2002                   
 POTCAR:    PAW_PBE Mg_pv 13Apr2007               
 POTCAR:    PAW_PBE O 08Apr2002                   
 POTCAR:    PAW_PBE C 08Apr2002                   
   SHA256 =  253f7b50bb8d59471dbedb8285d89021f4a42ed1a2c5d38a03a736e69125dd95 C/POTCAR              
   COPYR  = (c) Copyright 08Apr2002 Georg Kresse                                                    
   COPYR  = This file is part of the software VASP. Any use, copying, and all other rights are regul
   COPYR  = If you do not have a valid VASP license, you may not use, copy or distribute this file. 
   VRHFIN =C: s2p2                                                                                  
   LEXCH  = PE                                                                                      
   EATOM  =   147.1560 eV,   10.8157 Ry                                                             
                                                                                                    
   TITEL  = PAW_PBE C 08Apr2002                                                                     
   LULTRA =        F    use ultrasoft PP ?                                                          
   IUNSCR =        1    unscreen: 0-lin 1-nonlin 2-no                                               
   RPACOR =    1.200    partial core radius                                                         
   POMASS =   12.011; ZVAL   =    4.000    mass and valenz                                          
   RCORE  =    1.500    outmost cutoff radius                                                       
   RWIGS  =    1.630; RWIGS  =    0.863    wigner-seitz radius (au A)                               
   ENMAX  =  400.000; ENMIN  =  300.000 eV                                                          
   ICORE  =        2    local potential                                                             
   LCOR   =        T    correct aug charges                                                         
   LPAW   =        T    paw PP                                                                      
   EAUG   =  644.873                                                                                
   DEXC   =    0.000                                                                                
   RMAX   =    1.529    core radius for proj-oper                                                   
   RAUG   =    1.300    factor for augmentation sphere                                              
   RDEP   =    1.501    radius for radial grids                                                     
   RDEPT  =    1.300    core radius for aug-charge                                                  
                                                                                                    
   Atomic configuration                                                                             
    4 entries                                                                                       
     n  l   j            E        occ.                                                              
     1  0  0.50      -273.3789   2.0000                                                             
     2  0  0.50       -13.7508   2.0000                                                             
     2  1  0.50        -5.2854   2.0000                                                             
     3  2  1.50        -5.4423   0.0000                                                             
   Description                                                                                      
     l       E           TYP  RCUT    TYP  RCUT                                                     
     0    -13.7508458     23  1.200                                                                 
     0     -8.2022199     23  1.200                                                                 
     1     -5.2854383     23  1.500                                                                 
     1     34.0145650     23  1.500                                                                 
     2     -5.4423304      7  1.500                                                                 
  local pseudopotential read in
  partial core-charges read in
  partial kinetic energy density read in
  atomic valenz-charges read in
  non local Contribution for L=           0  read in
    real space projection operators read in
  non local Contribution for L=           0  read in
    real space projection operators read in
  non local Contribution for L=           1  read in
    real space projection operators read in
  non local Contribution for L=           1  read in
    real space projection operators read in
    PAW grid and wavefunctions read in

   number of l-projection  operators is LMAX  =           4
   number of lm-projection operators is LMMAX =           8

 POTCAR:    PAW_PBE O 08Apr2002                   
   SHA256 =  818f92134a0a090dccd8ba1447fa70422a3b330e708bb4f08108d8ae51209ddf O/POTCAR              
   COPYR  = (c) Copyright 08Apr2002 Georg Kresse                                                    
   COPYR  = This file is part of the software VASP. Any use, copying, and all other rights are regul
   COPYR  = If you do not have a valid VASP license, you may not use, copy or distribute this file. 
   VRHFIN =O: s2p4                                                                                  
   LEXCH  = PE                                                                                      
   EATOM  =   432.3788 eV,   31.7789 Ry                                                             
                                                                                                    
   TITEL  = PAW_PBE O 08Apr2002                                                                     
   LULTRA =        F    use ultrasoft PP ?                                                          
   IUNSCR =        1    unscreen: 0-lin 1-nonlin 2-no                                               
   RPACOR =    1.200    partial core radius                                                         
   POMASS =   16.000; ZVAL   =    6.000    mass and valenz                                          
   RCORE  =    1.520    outmost cutoff radius                                                       
   RWIGS  =    1.550; RWIGS  =    0.820    wigner-seitz radius (au A)                               
   ENMAX  =  400.000; ENMIN  =  300.000 eV                                                          
   ICORE  =        2    local potential                                                             
   LCOR   =        T    correct aug charges                                                         
   LPAW   =        T    paw PP                                                                      
   EAUG   =  605.392                                                                                
   DEXC   =    0.000                                                                                
   RMAX   =    1.553    core radius for proj-oper                                                   
   RAUG   =    1.300    factor for augmentation sphere                                              
   RDEP   =    1.550    radius for radial grids                                                     
   RDEPT  =    1.329    core radius for aug-charge                                                  
                                                                                                    
   Atomic configuration                                                                             
    4 entries                                                                                       
     n  l   j            E        occ.                                                              
     1  0  0.50      -514.6923   2.0000                                                             
     2  0  0.50       -23.9615   2.0000                                                             
     2  1  0.50        -9.0305   4.0000                                                             
     3  2  1.50        -9.5241   0.0000                                                             
   Description                                                                                      
     l       E           TYP  RCUT    TYP  RCUT                                                     
     0    -23.9615318     23  1.200                                                                 
     0     -9.5240782     23  1.200                                                                 
     1     -9.0304911     23  1.520                                                                 
     1      8.1634956     23  1.520                                                                 
     2     -9.5240782      7  1.500                                                                 
  local pseudopotential read in
  partial core-charges read in
  partial kinetic energy density read in
  kinetic energy density of atom read in
  atomic valenz-charges read in
  non local Contribution for L=           0  read in
    real space projection operators read in
  non local Contribution for L=           0  read in
    real space projection operators read in
  non local Contribution for L=           1  read in
    real space projection operators read in
  non local Contribution for L=           1  read in
    real space projection operators read in
    PAW grid and wavefunctions read in

   number of l-projection  operators is LMAX  =           4
   number of lm-projection operators is LMMAX =           8

 POTCAR:    PAW_PBE Mg_pv 13Apr2007               
   SHA256 =  f474ac0dd33840b9ae76c01d57fea79fdf77cdfbb07d5ade72c65f83c709b62b Mg_pv/POTCAR          
   COPYR  = (c) Copyright 13Apr2007 Georg Kresse                                                    
   COPYR  = This file is part of the software VASP. Any use, copying, and all other rights are regul
   COPYR  = If you do not have a valid VASP license, you may not use, copy or distribute this file. 
   VRHFIN =Mg: p6s2                                                                                 
   LEXCH  = PE                                                                                      
   EATOM  =  1056.7344 eV,   77.6678 Ry                                                             
                                                                                                    
   TITEL  = PAW_PBE Mg_pv 13Apr2007                                                                 
   LULTRA =        F    use ultrasoft PP ?                                                          
   IUNSCR =        1    unscreen: 0-lin 1-nonlin 2-no                                               
   RPACOR =    1.500    partial core radius                                                         
   POMASS =   24.305; ZVAL   =    8.000    mass and valenz                                          
   RCORE  =    2.000    outmost cutoff radius                                                       
   RWIGS  =    2.000; RWIGS  =    1.058    wigner-seitz radius (au A)                               
   ENMAX  =  403.929; ENMIN  =  302.947 eV                                                          
   RCLOC  =    1.506    cutoff for local pot                                                        
   LCOR   =        T    correct aug charges                                                         
   LPAW   =        T    paw PP                                                                      
   EAUG   =  758.780                                                                                
   DEXC   =    0.000                                                                                
   RMAX   =    2.045    core radius for proj-oper                                                   
   RAUG   =    1.300    factor for augmentation sphere                                              
   RDEP   =    2.025    radius for radial grids                                                     
   RDEPT  =    1.557    core radius for aug-charge                                                  
                                                                                                    
   Atomic configuration                                                                             
    5 entries                                                                                       
     n  l   j            E        occ.                                                              
     1  0  0.50     -1259.6230   2.0000                                                             
     2  0  0.50       -79.8442   2.0000                                                             
     2  1  1.50       -46.6121   6.0000                                                             
     3  0  0.50        -4.7055   2.0000                                                             
     3  2  1.50        -1.3606   0.0000                                                             
   Description                                                                                      
     l       E           TYP  RCUT    TYP  RCUT                                                     
     1    -46.6121073     23  1.600                                                                 
     1      2.7211652     23  1.600                                                                 
     0     -4.7054661     23  2.000                                                                 
     0     61.2262170     23  2.000                                                                 
     2     -1.3605826     23  2.000                                                                 
  local pseudopotential read in
  partial core-charges read in
  partial kinetic energy density read in
  atomic valenz-charges read in
  non local Contribution for L=           1  read in
    real space projection operators read in
  non local Contribution for L=           1  read in
    real space projection operators read in
  non local Contribution for L=           0  read in
    real space projection operators read in
  non local Contribution for L=           0  read in
    real space projection operators read in
  non local Contribution for L=           2  read in
    real space projection operators read in
    PAW grid and wavefunctions read in

   number of l-projection  operators is LMAX  =           5
   number of lm-projection operators is LMMAX =          13

 POTCAR:    PAW_PBE O 08Apr2002                   
   SHA256 =  818f92134a0a090dccd8ba1447fa70422a3b330e708bb4f08108d8ae51209ddf O/POTCAR              
   COPYR  = (c) Copyright 08Apr2002 Georg Kresse                                                    
   COPYR  = This file is part of the software VASP. Any use, copying, and all other rights are regul
   COPYR  = If you do not have a valid VASP license, you may not use, copy or distribute this file. 
   VRHFIN =O: s2p4                                                                                  
   LEXCH  = PE                                                                                      
   EATOM  =   432.3788 eV,   31.7789 Ry                                                             
                                                                                                    
   TITEL  = PAW_PBE O 08Apr2002                                                                     
   LULTRA =        F    use ultrasoft PP ?                                                          
   IUNSCR =        1    unscreen: 0-lin 1-nonlin 2-no                                               
   RPACOR =    1.200    partial core radius                                                         
   POMASS =   16.000; ZVAL   =    6.000    mass and valenz                                          
   RCORE  =    1.520    outmost cutoff radius                                                       
   RWIGS  =    1.550; RWIGS  =    0.820    wigner-seitz radius (au A)                               
   ENMAX  =  400.000; ENMIN  =  300.000 eV                                                          
   ICORE  =        2    local potential                                                             
   LCOR   =        T    correct aug charges                                                         
   LPAW   =        T    paw PP                                                                      
   EAUG   =  605.392                                                                                
   DEXC   =    0.000                                                                                
   RMAX   =    1.553    core radius for proj-oper                                                   
   RAUG   =    1.300    factor for augmentation sphere                                              
   RDEP   =    1.550    radius for radial grids                                                     
   RDEPT  =    1.329    core radius for aug-charge                                                  
                                                                                                    
   Atomic configuration                                                                             
    4 entries                                                                                       
     n  l   j            E        occ.                                                              
     1  0  0.50      -514.6923   2.0000                                                             
     2  0  0.50       -23.9615   2.0000                                                             
     2  1  0.50        -9.0305   4.0000                                                             
     3  2  1.50        -9.5241   0.0000                                                             
   Description                                                                                      
     l       E           TYP  RCUT    TYP  RCUT                                                     
     0    -23.9615318     23  1.200                                                                 
     0     -9.5240782     23  1.200                                                                 
     1     -9.0304911     23  1.520                                                                 
     1      8.1634956     23  1.520                                                                 
     2     -9.5240782      7  1.500                                                                 
  local pseudopotential read in
  partial core-charges read in
  partial kinetic energy density read in
  kinetic energy density of atom read in
  atomic valenz-charges read in
  non local Contribution for L=           0  read in
    real space projection operators read in
  non local Contribution for L=           0  read in
    real space projection operators read in
  non local Contribution for L=           1  read in
    real space projection operators read in
  non local Contribution for L=           1  read in
    real space projection operators read in
    PAW grid and wavefunctions read in

   number of l-projection  operators is LMAX  =           4
   number of lm-projection operators is LMMAX =           8

 -----------------------------------------------------------------------------
|                                                                             |
|               ----> ADVICE to this user running VASP <----                  |
|                                                                             |
|     You have a (more or less) 'large supercell' and for larger cells it     |
|     might be more efficient to use real-space projection operators.         |
|     Therefore, try LREAL= Auto in the INCAR file.                           |
|     Mind: For very accurate calculation, you might also keep the            |
|     reciprocal projection scheme (i.e. LREAL=.FALSE.).                      |
|                                                                             |
 -----------------------------------------------------------------------------

  PAW_PBE C 08Apr2002                   :
 energy of atom  1       EATOM= -147.1560
 kinetic energy error for atom=    0.0057 (will be added to EATOM!!)
  PAW_PBE O 08Apr2002                   :
 energy of atom  2       EATOM= -432.3788
 kinetic energy error for atom=    0.0168 (will be added to EATOM!!)
  PAW_PBE Mg_pv 13Apr2007               :
 energy of atom  3       EATOM=-1056.7344
 kinetic energy error for atom=    0.0221 (will be added to EATOM!!)
  PAW_PBE O 08Apr2002                   :
 energy of atom  4       EATOM= -432.3788
 kinetic energy error for atom=    0.0168 (will be added to EATOM!!)


 POSCAR:  C  O Mg  O
  positions in direct lattice
  No initial velocities read in
 exchange correlation table for  LEXCH =        8
   RHO(1)=    0.500       N(1)  =     2000
   RHO(2)=  100.500       N(2)  =     4000



--------------------------------------------------------------------------------------------------------


 ion  position               nearest neighbor table
   1  0.500  0.500  0.763-   2 1.15
   2  0.500  0.500  0.817-   1 1.15
   3  0.000  0.750  0.352-  35 2.11  37 2.11  38 2.11  45 2.11  54 2.11
   4  0.250  0.000  0.352-  36 2.11  37 2.11  38 2.11  46 2.11  53 2.11
   5  0.000  0.000  0.451-  37 2.11  36 2.11  35 2.11  43 2.11  52 2.11  41 2.12
   6  0.250  0.750  0.451-  38 2.11  36 2.11  35 2.11  44 2.11  51 2.11  42 2.12
   7  0.000  0.750  0.550-  49 2.11  42 2.11  58 2.11  41 2.11  35 2.12  39 2.15
   8  0.250  0.000  0.550-  57 2.11  50 2.11  42 2.11  41 2.11  36 2.12  40 2.15
   9  0.000  0.000  0.649-  39 2.11  40 2.11  47 2.11  56 2.11  41 2.11
  10  0.250  0.750  0.649-  42 2.11  40 2.11  39 2.11  48 2.11  55 2.11
  11  0.000  0.250  0.352-  43 2.11  37 2.11  45 2.11  46 2.11  62 2.11
  12  0.250  0.500  0.352-  44 2.11  38 2.11  45 2.11  46 2.11  61 2.11
  13  0.000  0.500  0.451-  45 2.11  43 2.11  44 2.11  35 2.11  60 2.11  49 2.12
  14  0.250  0.250  0.451-  46 2.11  43 2.11  44 2.11  36 2.11  59 2.11  50 2.12
  15  0.000  0.250  0.550-  49 2.11  50 2.11  66 2.11  41 2.11  43 2.12  47 2.15
  16  0.250  0.500  0.550-  65 2.11  50 2.11  42 2.11  49 2.11  44 2.13  48 2.15
  17  0.000  0.500  0.649-  48 2.10  64 2.10  49 2.11  47 2.11  39 2.11
  18  0.250  0.250  0.649-  50 2.11  47 2.11  40 2.11  48 2.11  63 2.11
  19  0.500  0.750  0.352-  51 2.11  38 2.11  53 2.11  54 2.11  61 2.11
  20  0.750  0.000  0.352-  52 2.11  37 2.11  53 2.11  54 2.11  62 2.11
  21  0.500  0.000  0.451-  53 2.11  51 2.11  52 2.11  36 2.11  59 2.11  57 2.12
  22  0.750  0.750  0.451-  54 2.11  51 2.11  52 2.11  35 2.11  60 2.11  58 2.12
  23  0.500  0.750  0.550-  65 2.11  58 2.11  42 2.11  57 2.11  51 2.13  55 2.15
  24  0.750  0.000  0.550-  57 2.11  58 2.11  66 2.11  41 2.11  52 2.12  56 2.15
  25  0.500  0.000  0.649-  55 2.10  63 2.10  57 2.11  40 2.11  56 2.11
  26  0.750  0.750  0.649-  58 2.11  56 2.11  39 2.11  55 2.11  64 2.11
  27  0.500  0.250  0.352-  59 2.11  53 2.11  46 2.11  61 2.11  62 2.11
  28  0.750  0.500  0.352-  60 2.11  54 2.11  45 2.11  61 2.11  62 2.11
  29  0.500  0.500  0.451-  61 2.11  51 2.11  59 2.11  60 2.11  44 2.11  65 2.13
  30  0.750  0.250  0.451-  62 2.11  52 2.11  59 2.11  60 2.11  43 2.11  66 2.12
  31  0.500  0.250  0.550-  65 2.11  50 2.11  66 2.11  57 2.11  59 2.13  63 2.15
  32  0.750  0.500  0.550-  65 2.11  58 2.11  66 2.11  49 2.11  60 2.13  64 2.15
  33  0.500  0.500  0.651-  48 2.12  55 2.12  63 2.12  64 2.12  65 2.14
  34  0.750  0.250  0.649-  66 2.11  56 2.11  47 2.11  64 2.11  63 2.11
  35  0.000  0.750  0.451-   3 2.11   5 2.11   6 2.11  13 2.11  22 2.11   7 2.12
  36  0.250  0.000  0.451-   4 2.11   5 2.11   6 2.11  14 2.11  21 2.11   8 2.12
  37  0.000  0.000  0.352-   5 2.11   4 2.11   3 2.11  11 2.11  20 2.11
  38  0.250  0.750  0.352-   6 2.11   4 2.11   3 2.11  12 2.11  19 2.11
  39  0.000  0.750  0.651-   9 2.11  10 2.11  26 2.11  17 2.11   7 2.15
  40  0.250  0.000  0.651-   9 2.11  10 2.11  18 2.11  25 2.11   8 2.15
  41  0.000  0.000  0.550-   9 2.11   8 2.11   7 2.11  15 2.11  24 2.11   5 2.12
  42  0.250  0.750  0.550-  10 2.11   8 2.11   7 2.11  16 2.11  23 2.11   6 2.12
  43  0.000  0.250  0.451-  11 2.11   5 2.11  13 2.11  14 2.11  30 2.11  15 2.12
  44  0.250  0.500  0.451-  12 2.11   6 2.11  13 2.11  14 2.11  29 2.11  16 2.13
  45  0.000  0.500  0.352-  13 2.11  11 2.11  12 2.11   3 2.11  28 2.11
  46  0.250  0.250  0.352-  14 2.11  11 2.11  12 2.11   4 2.11  27 2.11
  47  0.000  0.250  0.651-   9 2.11  18 2.11  34 2.11  17 2.11  15 2.15
  48  0.249  0.500  0.651-  17 2.10  10 2.11  18 2.11  33 2.12  16 2.15
  49  0.000  0.500  0.550-  17 2.11  15 2.11   7 2.11  16 2.11  32 2.11  13 2.12
  50  0.250  0.250  0.550-  18 2.11  15 2.11   8 2.11  16 2.11  31 2.11  14 2.12
  51  0.500  0.750  0.451-  19 2.11   6 2.11  21 2.11  22 2.11  29 2.11  23 2.13
  52  0.750  0.000  0.451-  20 2.11   5 2.11  21 2.11  22 2.11  30 2.11  24 2.12
  53  0.500  0.000  0.352-  21 2.11  19 2.11  20 2.11   4 2.11  27 2.11
  54  0.750  0.750  0.352-  22 2.11  19 2.11  20 2.11   3 2.11  28 2.11
  55  0.500  0.751  0.651-  25 2.10  10 2.11  26 2.11  33 2.12  23 2.15
  56  0.750  0.000  0.651-   9 2.11  26 2.11  34 2.11  25 2.11  24 2.15
  57  0.500  0.000  0.550-  25 2.11  24 2.11   8 2.11  23 2.11  31 2.11  21 2.12
  58  0.750  0.750  0.550-  26 2.11  24 2.11   7 2.11  32 2.11  23 2.11  22 2.12
  59  0.500  0.250  0.451-  27 2.11  21 2.11  14 2.11  29 2.11  30 2.11  31 2.13
  60  0.750  0.500  0.451-  28 2.11  22 2.11  13 2.11  29 2.11  30 2.11  32 2.13
  61  0.500  0.500  0.352-  29 2.11  19 2.11  27 2.11  28 2.11  12 2.11
  62  0.750  0.250  0.352-  30 2.11  20 2.11  27 2.11  28 2.11  11 2.11
  63  0.500  0.249  0.651-  25 2.10  18 2.11  34 2.11  33 2.12  31 2.15
  64  0.751  0.500  0.651-  17 2.10  26 2.11  34 2.11  33 2.12  32 2.15
  65  0.500  0.500  0.550-  16 2.11  23 2.11  31 2.11  32 2.11  29 2.13  33 2.14
  66  0.750  0.250  0.550-  34 2.11  24 2.11  15 2.11  32 2.11  31 2.11  30 2.12

  LATTYP: Found a simple tetragonal cell.
 ALAT       =     8.4409846542
 C/A-ratio  =     2.5270438657
  
  Lattice vectors:
  
 A1 = (   8.4409846542,   0.0000000000,   0.0000000000)
 A2 = (   0.0000000000,   8.4409846542,   0.0000000000)
 A3 = (   0.0000000000,   0.0000000000,  21.3307384906)


Analysis of symmetry for initial positions (statically):
=====================================================================
 Subroutine PRICEL returns:
 Original cell was already a primitive cell.
 

 Routine SETGRP: Setting up the symmetry group for a 
 simple tetragonal supercell.


 Subroutine GETGRP returns: Found  8 space group operations
 (whereof  8 operations were pure point group operations)
 out of a pool of 16 trial point group operations.


The static configuration has the point symmetry C_4v.


Analysis of symmetry for dynamics (positions and initial velocities):
=====================================================================
 Subroutine PRICEL returns:
 Original cell was already a primitive cell.
 

 Routine SETGRP: Setting up the symmetry group for a 
 simple tetragonal supercell.


 Subroutine GETGRP returns: Found  8 space group operations
 (whereof  8 operations were pure point group operations)
 out of a pool of 16 trial point group operations.


The dynamic configuration has the point symmetry C_4v.


 Subroutine INISYM returns: Found  8 space group operations
 (whereof  8 operations are pure point group operations),
 and found     1 'primitive' translations


----------------------------------------------------------------------------------------

                                     Primitive cell                                     

  volume of cell :    1519.8199

  direct lattice vectors                    reciprocal lattice vectors
     8.440984654  0.000000000  0.000000000     0.118469591  0.000000000  0.000000000
     0.000000000  8.440984654  0.000000000     0.000000000  0.118469591  0.000000000
     0.000000000  0.000000000 21.330738491     0.000000000  0.000000000  0.046880702

  length of vectors
     8.440984654  8.440984654 21.330738491     0.118469591  0.118469591  0.046880702

  position of ions in fractional coordinates (direct lattice)
     0.500000000  0.500000000  0.763130646
     0.500000000  0.500000000  0.816894364
     0.000000000  0.750000000  0.351605267
     0.250000000  0.000000000  0.351605267
     0.000000000  0.000000000  0.450535089
     0.250000000  0.750000000  0.450535089
     0.000000000  0.749939268  0.550083239
     0.250060732  0.000000000  0.550083239
     0.000000000  0.000000000  0.648745309
     0.249858327  0.750141673  0.648569547
     0.000000000  0.250000000  0.351605267
     0.250000000  0.500000000  0.351605267
     0.000000000  0.500000000  0.450535089
     0.250000000  0.250000000  0.450535089
     0.000000000  0.250060732  0.550083239
     0.250378379  0.500000000  0.550219524
     0.000000000  0.500000000  0.648615280
     0.249858327  0.249858327  0.648569547
     0.500000000  0.750000000  0.351605267
     0.750000000  0.000000000  0.351605267
     0.500000000  0.000000000  0.450535089
     0.750000000  0.750000000  0.450535089
     0.500000000  0.749621621  0.550219524
     0.749939268  0.000000000  0.550083239
     0.500000000  0.000000000  0.648615280
     0.750141673  0.750141673  0.648569547
     0.500000000  0.250000000  0.351605267
     0.750000000  0.500000000  0.351605267
     0.500000000  0.500000000  0.450535089
     0.750000000  0.250000000  0.450535089
     0.500000000  0.250378379  0.550219524
     0.749621621  0.500000000  0.550219524
     0.500000000  0.500000000  0.650616960
     0.750141673  0.249858327  0.648569547
     0.000000000  0.750000000  0.450535089
     0.250000000  0.000000000  0.450535089
     0.000000000  0.000000000  0.351605267
     0.250000000  0.750000000  0.351605267
     0.000000000  0.750218533  0.650979255
     0.249781467  0.000000000  0.650979255
     0.000000000  0.000000000  0.549809890
     0.249945770  0.750054230  0.549859113
     0.000000000  0.250000000  0.450535089
     0.250000000  0.500000000  0.450535089
     0.000000000  0.500000000  0.351605267
     0.250000000  0.250000000  0.351605267
     0.000000000  0.249781467  0.650979255
     0.248822710  0.500000000  0.650882872
     0.000000000  0.500000000  0.549762666
     0.249945770  0.249945770  0.549859113
     0.500000000  0.750000000  0.450535089
     0.750000000  0.000000000  0.450535089
     0.500000000  0.000000000  0.351605267
     0.750000000  0.750000000  0.351605267
     0.500000000  0.751177290  0.650882872
     0.750218533  0.000000000  0.650979255
     0.500000000  0.000000000  0.549762666
     0.750054230  0.750054230  0.549859113
     0.500000000  0.250000000  0.450535089
     0.750000000  0.500000000  0.450535089
     0.500000000  0.500000000  0.351605267
     0.750000000  0.250000000  0.351605267
     0.500000000  0.248822710  0.650882872
     0.751177290  0.500000000  0.650882872
     0.500000000  0.500000000  0.550231357
     0.750054230  0.249945770  0.549859113

  ion indices of the primitive-cell ions
   primitive index   ion index
                 1           1
                 2           2
                 3           3
                 4           4
                 5           5
                 6           6
                 7           7
                 8           8
                 9           9
                10          10
                11          11
                12          12
                13          13
                14          14
                15          15
                16          16
                17          17
                18          18
                19          19
                20          20
                21          21
                22          22
                23          23
                24          24
                25          25
                26          26
                27          27
                28          28
                29          29
                30          30
                31          31
                32          32
                33          33
                34          34
                35          35
                36          36
                37          37
                38          38
                39          39
                40          40
                41          41
                42          42
                43          43
                44          44
                45          45
                46          46
                47          47
                48          48
                49          49
                50          50
                51          51
                52          52
                53          53
                54          54
                55          55
                56          56
                57          57
                58          58
                59          59
                60          60
                61          61
                62          62
                63          63
                64          64
                65          65
                66          66

----------------------------------------------------------------------------------------



 KPOINTS: pymatgen v2020.8.13 with grid density = 

Automatic generation of k-mesh.
 Grid dimensions read from file:
 generate k-points for:    2    2    1

 Generating k-lattice:

  Cartesian coordinates                     Fractional coordinates (reciprocal lattice)
     0.059234796  0.000000000  0.000000000     0.500000000  0.000000000  0.000000000
     0.000000000  0.059234796  0.000000000     0.000000000  0.500000000  0.000000000
     0.000000000  0.000000000  0.046880702     0.000000000  0.000000000  1.000000000

  Length of vectors
     0.059234796  0.059234796  0.046880702

  Shift w.r.t. Gamma in fractional coordinates (k-lattice)
     0.000000000  0.000000000  0.000000000

 
 Subroutine IBZKPT returns following result:
 ===========================================
 
 Found      3 irreducible k-points:
 
 Following reciprocal coordinates:
            Coordinates               Weight
  0.000000  0.000000  0.000000      1.000000
  0.500000  0.000000  0.000000      2.000000
  0.500000  0.500000  0.000000      1.000000
 
 Following cartesian coordinates:
            Coordinates               Weight
  0.000000  0.000000  0.000000      1.000000
  0.059235  0.000000  0.000000      2.000000
  0.059235  0.059235  0.000000      1.000000
 


--------------------------------------------------------------------------------------------------------




 Dimension of arrays:
   k-points           NKPTS =      3   k-points in BZ     NKDIM =      3   number of bands    NBANDS=    320
   number of dos      NEDOS =    301   number of ions     NIONS =     66
   non local maximal  LDIM  =      5   non local SUM 2l+1 LMDIM =     13
   total plane-waves  NPLWV = 373248
   max r-space proj   IRMAX =      1   max aug-charges    IRDMAX=   5039
   dimension x,y,z NGX =    54 NGY =   54 NGZ =  128
   dimension x,y,z NGXF=   108 NGYF=  108 NGZF=  256
   support grid    NGXF=   108 NGYF=  108 NGZF=  256
   ions per type =               1   1  32  32
   NGX,Y,Z   is equivalent  to a cutoff of  10.64, 10.64,  9.98 a.u.
   NGXF,Y,Z  is equivalent  to a cutoff of  21.27, 21.27, 19.95 a.u.

 SYSTEM =  MgO-rocksalt                            
 POSCAR =   C  O Mg  O                             

 Startparameter for this run:
   NWRITE =      2    write-flag & timer
   PREC   = normal    normal or accurate (medium, high low for compatibility)
   ISTART =      0    job   : 0-new  1-cont  2-samecut
   ICHARG =      2    charge: 1-file 2-atom 10-const
   ISPIN  =      1    spin polarized calculation?
   LNONCOLLINEAR =      F non collinear calculations
   LSORBIT =      F    spin-orbit coupling
   INIWAV =      1    electr: 0-lowe 1-rand  2-diag
   LASPH  =      T    aspherical Exc in radial PAW
 Electronic Relaxation 1
   ENCUT  =  600.0 eV  44.10 Ry    6.64 a.u.  16.86 16.86 42.60*2*pi/ulx,y,z
   ENINI  =  600.0     initial cutoff
   ENAUG  =  758.8 eV  augmentation charge cutoff
   NELM   =    200;   NELMIN=  8; NELMDL= -5     # of ELM steps 
   EDIFF  = 0.1E-05   stopping-criterion for ELM
   LREAL  =      F    real-space projection
   NLSPLINE    = F    spline interpolate recip. space projectors
   LCOMPAT=      F    compatible to vasp.4.4
   GGA_COMPAT  = T    GGA compatible to vasp.4.4-vasp.4.6
   LMAXPAW     = -100 max onsite density
   LMAXMIX     =    2 max onsite mixed and CHGCAR
   VOSKOWN=      0    Vosko Wilk Nusair interpolation
   ROPT   =    0.00000   0.00000   0.00000   0.00000
 Ionic relaxation
   EDIFFG = -.1E-01   stopping-criterion for IOM
   NSW    =      0    number of steps for IOM
   NBLOCK =      1;   KBLOCK =      1    inner block; outer block 
   IBRION =     -1    ionic relax: 0-MD 1-quasi-New 2-CG
   NFREE  =      0    steps in history (QN), initial steepest desc. (CG)
   ISIF   =      2    stress and relaxation
   IWAVPR =     10    prediction:  0-non 1-charg 2-wave 3-comb
   ISYM   =      2    0-nonsym 1-usesym 2-fastsym
   LCORR  =      T    Harris-Foulkes like correction to forces

   POTIM  = 0.5000    time-step for ionic-motion
   TEIN   =    0.0    initial temperature
   TEBEG  =    0.0;   TEEND  =   0.0 temperature during run
   SMASS  =  -3.00    Nose mass-parameter (am)
   estimated Nose-frequenzy (Omega)   =  0.10E-29 period in steps = 0.13E+47 mass=  -0.163E-26a.u.
   SCALEE = 1.0000    scale energy and forces
   NPACO  =    256;   APACO  = 10.0  distance and # of slots for P.C.
   PSTRESS=    0.0 pullay stress

  Mass of Ions in am
   POMASS =  12.01 16.00 24.30 16.00
  Ionic Valenz
   ZVAL   =   4.00  6.00  8.00  6.00
  Atomic Wigner-Seitz radii
   RWIGS  =  -1.00 -1.00 -1.00 -1.00
  virtual crystal weights 
   VCA    =   1.00  1.00  1.00  1.00
   NELECT =     458.0000    total number of electrons
   NUPDOWN=      -1.0000    fix difference up-down

 DOS related values:
   EMIN   =  10.00;   EMAX   =-10.00  energy-range for DOS
   EFERMI =   0.00
   ISMEAR =     0;   SIGMA  =   0.05  broadening in eV -4-tet -1-fermi 0-gaus

 Electronic relaxation 2 (details)
   IALGO  =     58    algorithm
   LDIAG  =      T    sub-space diagonalisation (order eigenvalues)
   LSUBROT=      F    optimize rotation matrix (better conditioning)
   TURBO    =      0    0=normal 1=particle mesh
   IRESTART =      0    0=no restart 2=restart with 2 vectors
   NREBOOT  =      0    no. of reboots
   NMIN     =      0    reboot dimension
   EREF     =   0.00    reference energy to select bands
   IMIX   =      4    mixing-type and parameters
     AMIX     =   0.40;   BMIX     =  1.00
     AMIX_MAG =   1.60;   BMIX_MAG =  1.00
     AMIN     =   0.10
     WC   =   100.;   INIMIX=   1;  MIXPRE=   1;  MAXMIX= -45

 Intra band minimization:
   WEIMIN = 0.0000     energy-eigenvalue tresh-hold
   EBREAK =  0.78E-09  absolut break condition
   DEPER  =   0.30     relativ break condition  

   TIME   =   0.40     timestep for ELM

  volume/ion in A,a.u.               =      23.03       155.40
  Fermi-wavevector in a.u.,A,eV,Ry     =   1.097571  2.074108 16.390423  1.204662
  Thomas-Fermi vector in A             =   2.233933

 Write flags
   LWAVE        =      F    write WAVECAR
   LDOWNSAMPLE  =      F    k-point downsampling of WAVECAR
   LCHARG       =      F    write CHGCAR
   LVTOT        =      F    write LOCPOT, total local potential
   LVHAR        =      F    write LOCPOT, Hartree potential only
   LELF         =      F    write electronic localiz. function (ELF)
   LORBIT       =      0    0 simple, 1 ext, 2 COOP (PROOUT), +10 PAW based schemes


 Dipole corrections
   LMONO  =      F    monopole corrections only (constant potential shift)
   LDIPOL =      T    correct potential (dipole corrections)
   IDIPOL =      3    1-x, 2-y, 3-z, 4-all directions 
   EPSILON=  1.0000000 bulk dielectric constant

 Exchange correlation treatment:
   GGA     =    PE    GGA type
   LEXCH   =     8    internal setting for exchange type
   LIBXC   =     F    Libxc                    
   VOSKOWN =     0    Vosko Wilk Nusair interpolation
   LHFCALC =     F    Hartree Fock is set to
   LHFONE  =     F    Hartree Fock one center treatment
   AEXX    =    0.0000 exact exchange contribution

 Linear response parameters
   LEPSILON=     F    determine dielectric tensor
   LRPA    =     F    only Hartree local field effects (RPA)
   LNABLA  =     F    use nabla operator in PAW spheres
   LVEL    =     F    velocity operator in full k-point grid
   CSHIFT  =0.1000    complex shift for real part using Kramers Kronig
   OMEGAMAX=  -1.0    maximum frequency
   DEG_THRESHOLD= 0.2000000E-02 threshold for treating states as degnerate
   RTIME   =   -0.100 relaxation time in fs
  (WPLASMAI=    0.000 imaginary part of plasma frequency in eV, 0.658/RTIME)
   DFIELD  = 0.0000000 0.0000000 0.0000000 field for delta impulse in time

  Optional k-point grid parameters
   LKPOINTS_OPT  =     F    use optional k-point grid
   KPOINTS_OPT_MODE=     1    mode for optional k-point grid

 Orbital magnetization related:
   ORBITALMAG=     F  switch on orbital magnetization
   LCHIMAG   =     F  perturbation theory with respect to B field
   DQ        =  0.001000  dq finite difference perturbation B field
   LLRAUG    =     F  two centre corrections for induced B field



--------------------------------------------------------------------------------------------------------


 Static calculation
 charge density and potential will be updated during run
 non-spin polarized calculation
 Conjugate gradient for all bands (Freysoldt, et al. PRB 79, 241103 (2009))
 preconditioned conjugated gradient                                        
 perform sub-space diagonalisation
    before iterative eigenvector-optimisation
 modified Broyden-mixing scheme, WC =      100.0
 initial mixing is a Kerker type mixing with AMIX =  0.4000 and BMIX =      1.0000
 Hartree-type preconditioning will be used
 using additional bands           91
 reciprocal scheme for non local part
 use partial core corrections
 no Harris-corrections to forces 
 use gradient corrections 
 use of overlap-Matrix (Vanderbilt PP)
 Gauss-broadening in eV      SIGMA  =   0.05


--------------------------------------------------------------------------------------------------------


  energy-cutoff  :      600.00
  volume of cell :     1519.82
      direct lattice vectors                 reciprocal lattice vectors
     8.440984654  0.000000000  0.000000000     0.118469591  0.000000000  0.000000000
     0.000000000  8.440984654  0.000000000     0.000000000  0.118469591  0.000000000
     0.000000000  0.000000000 21.330738491     0.000000000  0.000000000  0.046880702

  length of vectors
     8.440984654  8.440984654 21.330738491     0.118469591  0.118469591  0.046880702



 k-points in units of 2pi/SCALE and weight: pymatgen v2020.8.13 with grid density = 
   0.00000000  0.00000000  0.00000000       0.250
   0.05923480  0.00000000  0.00000000       0.500
   0.05923480  0.05923480  0.00000000       0.250

 k-points in reciprocal lattice and weights: pymatgen v2020.8.13 with grid density = 
   0.00000000  0.00000000  0.00000000       0.250
   0.50000000  0.00000000  0.00000000       0.500
   0.50000000  0.50000000  0.00000000       0.250

 position of ions in fractional coordinates (direct lattice) 
   0.50000000  0.50000000  0.76313065
   0.50000000  0.50000000  0.81689436
   0.00000000  0.75000000  0.35160527
   0.25000000  0.00000000  0.35160527
   0.00000000  0.00000000  0.45053509
   0.25000000  0.75000000  0.45053509
   0.00000000  0.74993927  0.55008324
   0.25006073  0.00000000  0.55008324
   0.00000000  0.00000000  0.64874531
   0.24985833  0.75014167  0.64856955
   0.00000000  0.25000000  0.35160527
   0.25000000  0.50000000  0.35160527
   0.00000000  0.50000000  0.45053509
   0.25000000  0.25000000  0.45053509
   0.00000000  0.25006073  0.55008324
   0.25037838  0.50000000  0.55021952
   0.00000000  0.50000000  0.64861528
   0.24985833  0.24985833  0.64856955
   0.50000000  0.75000000  0.35160527
   0.75000000  0.00000000  0.35160527
   0.50000000  0.00000000  0.45053509
   0.75000000  0.75000000  0.45053509
   0.50000000  0.74962162  0.55021952
   0.74993927  0.00000000  0.55008324
   0.50000000  0.00000000  0.64861528
   0.75014167  0.75014167  0.64856955
   0.50000000  0.25000000  0.35160527
   0.75000000  0.50000000  0.35160527
   0.50000000  0.50000000  0.45053509
   0.75000000  0.25000000  0.45053509
   0.50000000  0.25037838  0.55021952
   0.74962162  0.50000000  0.55021952
   0.50000000  0.50000000  0.65061696
   0.75014167  0.24985833  0.64856955
   0.00000000  0.75000000  0.45053509
   0.25000000  0.00000000  0.45053509
   0.00000000  0.00000000  0.35160527
   0.25000000  0.75000000  0.35160527
   0.00000000  0.75021853  0.65097926
   0.24978147  0.00000000  0.65097926
   0.00000000  0.00000000  0.54980989
   0.24994577  0.75005423  0.54985911
   0.00000000  0.25000000  0.45053509
   0.25000000  0.50000000  0.45053509
   0.00000000  0.50000000  0.35160527
   0.25000000  0.25000000  0.35160527
   0.00000000  0.24978147  0.65097926
   0.24882271  0.50000000  0.65088287
   0.00000000  0.50000000  0.54976267
   0.24994577  0.24994577  0.54985911
   0.50000000  0.75000000  0.45053509
   0.75000000  0.00000000  0.45053509
   0.50000000  0.00000000  0.35160527
   0.75000000  0.75000000  0.35160527
   0.50000000  0.75117729  0.65088287
   0.75021853  0.00000000  0.65097926
   0.50000000  0.00000000  0.54976267
   0.75005423  0.75005423  0.54985911
   0.50000000  0.25000000  0.45053509
   0.75000000  0.50000000  0.45053509
   0.50000000  0.50000000  0.35160527
   0.75000000  0.25000000  0.35160527
   0.50000000  0.24882271  0.65088287
   0.75117729  0.50000000  0.65088287
   0.50000000  0.50000000  0.55023136
   0.75005423  0.24994577  0.54985911

 position of ions in cartesian coordinates  (Angst):
   4.22049233  4.22049233 16.27814023
   4.22049233  4.22049233 17.42496005
   0.00000000  6.33073849  7.50000000
   2.11024616  0.00000000  7.50000000
   0.00000000  0.00000000  9.61024616
   2.11024616  6.33073849  9.61024616
   0.00000000  6.33022585 11.73368172
   2.11075880  0.00000000 11.73368172
   0.00000000  0.00000000 13.83821654
   2.10905031  6.33193435 13.83446740
   0.00000000  2.11024616  7.50000000
   2.11024616  4.22049233  7.50000000
   0.00000000  4.22049233  9.61024616
   2.11024616  2.11024616  9.61024616
   0.00000000  2.11075880 11.73368172
   2.11344006  4.22049233 11.73658877
   0.00000000  4.22049233 13.83544293
   2.10905031  2.10905031 13.83446740
   4.22049233  6.33073849  7.50000000
   6.33073849  0.00000000  7.50000000
   4.22049233  0.00000000  9.61024616
   6.33073849  6.33073849  9.61024616
   4.22049233  6.32754460 11.73658877
   6.33022585  0.00000000 11.73368172
   4.22049233  0.00000000 13.83544293
   6.33193435  6.33193435 13.83446740
   4.22049233  2.11024616  7.50000000
   6.33073849  4.22049233  7.50000000
   4.22049233  4.22049233  9.61024616
   6.33073849  2.11024616  9.61024616
   4.22049233  2.11344006 11.73658877
   6.32754460  4.22049233 11.73658877
   4.22049233  4.22049233 13.87814023
   6.33193435  2.10905031 13.83446740
   0.00000000  6.33073849  9.61024616
   2.11024616  0.00000000  9.61024616
   0.00000000  0.00000000  7.50000000
   2.11024616  6.33073849  7.50000000
   0.00000000  6.33258312 13.88586825
   2.10840153  0.00000000 13.88586825
   0.00000000  0.00000000 11.72785099
   2.10978841  6.33119624 11.72890095
   0.00000000  2.11024616  9.61024616
   2.11024616  4.22049233  9.61024616
   0.00000000  4.22049233  7.50000000
   2.11024616  2.11024616  7.50000000
   0.00000000  2.10840153 13.88586825
   2.10030867  4.22049233 13.88381232
   0.00000000  4.22049233 11.72684365
   2.10978841  2.10978841 11.72890095
   4.22049233  6.33073849  9.61024616
   6.33073849  0.00000000  9.61024616
   4.22049233  0.00000000  7.50000000
   6.33073849  6.33073849  7.50000000
   4.22049233  6.34067598 13.88381232
   6.33258312  0.00000000 13.88586825
   4.22049233  0.00000000 11.72684365
   6.33119624  6.33119624 11.72890095
   4.22049233  2.11024616  9.61024616
   6.33073849  4.22049233  9.61024616
   4.22049233  4.22049233  7.50000000
   6.33073849  2.11024616  7.50000000
   4.22049233  2.10030867 13.88381232
   6.34067598  4.22049233 13.88381232
   4.22049233  4.22049233 11.73684118
   6.33119624  2.10978841 11.72890095



--------------------------------------------------------------------------------------------------------


 k-point   1 :   0.0000 0.0000 0.0000  plane waves:   50745
 k-point   2 :   0.5000 0.0000 0.0000  plane waves:   50798
 k-point   3 :   0.5000 0.5000 0.0000  plane waves:   50752

 maximum and minimum number of plane-waves per node :     12720    12632

 maximum number of plane-waves:     50798
 maximum index in each direction: 
   IXMAX=   16   IYMAX=   16   IZMAX=   42
   IXMIN=  -17   IYMIN=  -17   IZMIN=  -42


 parallel 3D FFT for wavefunctions:
    minimum data exchange during FFTs selected (reduces bandwidth)
 parallel 3D FFT for charge:
    minimum data exchange during FFTs selected (reduces bandwidth)


 total amount of memory used by VASP MPI-rank0    78528. kBytes
=======================================================================

   base      :      30000. kBytes
   nonl-proj :      29343. kBytes
   fftplans  :       3857. kBytes
   grid      :       5885. kBytes
   one-center:        137. kBytes
   wavefun   :       9306. kBytes

     INWAV:  cpu time      0.0002: real time      0.0003
 Broyden mixing: mesh for mixing (old mesh)
   NGX = 33   NGY = 33   NGZ = 85
  (NGX  =108   NGY  =108   NGZ  =256)
  gives a total of  92565 points

 initial charge density was supplied:
 charge density of overlapping atoms calculated
 number of electron     458.0000000 magnetization 
 keeping initial charge density in first step


--------------------------------------------------------------------------------------------------------


 Maximum index for augmentation-charges          334 (set IRDMAX)


--------------------------------------------------------------------------------------------------------


 First call to EWALD:  gamma=   0.154
 Maximum number of real-space cells 4x 4x 2
 Maximum number of reciprocal cells 2x 2x 5

    FEWALD:  cpu time      0.0038: real time      0.0038


--------------------------------------- Iteration      1(   1)  ---------------------------------------


    POTLOK:  cpu time      0.0442: real time      0.0448
    SETDIJ:  cpu time      0.1635: real time      0.1636
    TRIAL :  cpu time      5.3643: real time      5.4590
    CORREC:  cpu time      0.0015: real time      0.0015
    --------------------------------------------
      LOOP:  cpu time      5.5751: real time      5.7024

 eigenvalue-minimisations  :  2304
 total energy-change (2. order) : 0.4154005E+04  (-0.3067040E+05)
 number of electron     458.0000000 magnetization 
 augmentation part      458.0000000 magnetization 

 DIPCOR: dipole corrections for dipol
 direction  3 min pos     1,
 dipolmoment           0.000000      0.000000     -0.000244 electrons x Angstroem
 Tr[quadrupol]     -6318.707312

 energy correction for charged system         0.000000 eV
 dipol+quadrupol energy correction           -0.000000 eV
 added-field ion interaction          0.001963 eV  (added to PSCEN)


 Free energy of the ion-electron system (eV)
  ---------------------------------------------------
  alpha Z        PSCENC =       907.96606676
  Ewald energy   TEWEN  =    137238.72939893
  -Hartree energ DENC   =   -173337.30002166
  -exchange      EXHF   =         0.00000000
  -V(xc)+E(xc)   XCENC  =      1789.23544009
  PAW double counting   =     32310.01086261   -36145.30683839
  entropy T*S    EENTRO =        -0.02647544
  eigenvalues    EBANDS =     -6839.19241165
  atomic energy  EATOM  =     48229.88884101
  ---------------------------------------------------
  free energy    TOTEN  =      4154.00486226 eV

  energy without entropy =     4154.03133770  energy(sigma->0) =     4154.01809998


--------------------------------------------------------------------------------------------------------




--------------------------------------- Iteration      1(   2)  ---------------------------------------


    TRIAL :  cpu time      2.2544: real time      2.2548
    CORREC:  cpu time      0.0003: real time      0.0003
    --------------------------------------------
      LOOP:  cpu time      2.2611: real time      2.2702

 eigenvalue-minimisations  :  2304
 total energy-change (2. order) :-0.4288238E+04  (-0.4214860E+04)
 number of electron     458.0000000 magnetization 
 augmentation part      458.0000000 magnetization 

 DIPCOR: dipole corrections for dipol
 direction  3 min pos     1,
 dipolmoment           0.000000      0.000000     -0.000244 electrons x Angstroem
 Tr[quadrupol]     -6318.707312

 energy correction for charged system         0.000000 eV
 dipol+quadrupol energy correction           -0.000000 eV
 added-field ion interaction          0.001963 eV  (added to PSCEN)


 Free energy of the ion-electron system (eV)
  ---------------------------------------------------
  alpha Z        PSCENC =       907.96606676
  Ewald energy   TEWEN  =    137238.72939893
  -Hartree energ DENC   =   -173337.30002166
  -exchange      EXHF   =         0.00000000
  -V(xc)+E(xc)   XCENC  =      1789.23544009
  PAW double counting   =     32310.01086261   -36145.30683839
  entropy T*S    EENTRO =        -0.00000000
  eigenvalues    EBANDS =    -11127.45650371
  atomic energy  EATOM  =     48229.88884101
  ---------------------------------------------------
  free energy    TOTEN  =      -134.23275435 eV

  energy without entropy =     -134.23275435  energy(sigma->0) =     -134.23275435


--------------------------------------------------------------------------------------------------------




--------------------------------------- Iteration      1(   3)  ---------------------------------------


    TRIAL :  cpu time      2.3636: real time      2.3641
    CORREC:  cpu time      0.0004: real time      0.0004
    --------------------------------------------
      LOOP:  cpu time      2.3703: real time      2.3786

 eigenvalue-minimisations  :  2304
 total energy-change (2. order) :-0.3105013E+03  (-0.3084376E+03)
 number of electron     458.0000000 magnetization 
 augmentation part      458.0000000 magnetization 

 DIPCOR: dipole corrections for dipol
 direction  3 min pos     1,
 dipolmoment           0.000000      0.000000     -0.000244 electrons x Angstroem
 Tr[quadrupol]     -6318.707312

 energy correction for charged system         0.000000 eV
 dipol+quadrupol energy correction           -0.000000 eV
 added-field ion interaction          0.001963 eV  (added to PSCEN)


 Free energy of the ion-electron system (eV)
  ---------------------------------------------------
  alpha Z        PSCENC =       907.96606676
  Ewald energy   TEWEN  =    137238.72939893
  -Hartree energ DENC   =   -173337.30002166
  -exchange      EXHF   =         0.00000000
  -V(xc)+E(xc)   XCENC  =      1789.23544009
  PAW double counting   =     32310.01086261   -36145.30683839
  entropy T*S    EENTRO =        -0.00000000
  eigenvalues    EBANDS =    -11437.95780455
  atomic energy  EATOM  =     48229.88884101
  ---------------------------------------------------
  free energy    TOTEN  =      -444.73405519 eV

  energy without entropy =     -444.73405519  energy(sigma->0) =     -444.73405519


--------------------------------------------------------------------------------------------------------




--------------------------------------- Iteration      1(   4)  ---------------------------------------


    TRIAL :  cpu time      2.3767: real time      2.3770
    CORREC:  cpu time      0.0003: real time      0.0003
    --------------------------------------------
      LOOP:  cpu time      2.3911: real time      2.3915

 eigenvalue-minimisations  :  2368
 total energy-change (2. order) :-0.6019308E+01  (-0.6012174E+01)
 number of electron     458.0000000 magnetization 
 augmentation part      458.0000000 magnetization 

 DIPCOR: dipole corrections for dipol
 direction  3 min pos     1,
 dipolmoment           0.000000      0.000000     -0.000244 electrons x Angstroem
 Tr[quadrupol]     -6318.707312

 energy correction for charged system         0.000000 eV
 dipol+quadrupol energy correction           -0.000000 eV
 added-field ion interaction          0.001963 eV  (added to PSCEN)


 Free energy of the ion-electron system (eV)
  ---------------------------------------------------
  alpha Z        PSCENC =       907.96606676
  Ewald energy   TEWEN  =    137238.72939893
  -Hartree energ DENC   =   -173337.30002166
  -exchange      EXHF   =         0.00000000
  -V(xc)+E(xc)   XCENC  =      1789.23544009
  PAW double counting   =     32310.01086261   -36145.30683839
  entropy T*S    EENTRO =        -0.00000000
  eigenvalues    EBANDS =    -11443.97711207
  atomic energy  EATOM  =     48229.88884101
  ---------------------------------------------------
  free energy    TOTEN  =      -450.75336272 eV

  energy without entropy =     -450.75336272  energy(sigma->0) =     -450.75336272


--------------------------------------------------------------------------------------------------------




--------------------------------------- Iteration      1(   5)  ---------------------------------------


    TRIAL :  cpu time      2.3905: real time      2.3908
    CORREC:  cpu time      0.0004: real time      0.0004
    CHARGE:  cpu time      0.0746: real time      0.0750
    --------------------------------------------
      LOOP:  cpu time      2.4721: real time      2.4804

 eigenvalue-minimisations  :  2368
 total energy-change (2. order) :-0.7810522E-01  (-0.7810216E-01)
 number of electron     457.9999361 magnetization 
 augmentation part      159.5869123 magnetization 

 DIPCOR: dipole corrections for dipol
 direction  3 min pos     1,
 dipolmoment           0.000000      0.000000     -0.000244 electrons x Angstroem
 Tr[quadrupol]     -6318.707312

 energy correction for charged system         0.000000 eV
 dipol+quadrupol energy correction           -0.000000 eV
 added-field ion interaction          0.001963 eV  (added to PSCEN)


 Free energy of the ion-electron system (eV)
  ---------------------------------------------------
  alpha Z        PSCENC =       907.96606676
  Ewald energy   TEWEN  =    137238.72939893
  -Hartree energ DENC   =   -173337.30002166
  -exchange      EXHF   =         0.00000000
  -V(xc)+E(xc)   XCENC  =      1789.23544009
  PAW double counting   =     32310.01086261   -36145.30683839
  entropy T*S    EENTRO =        -0.00000000
  eigenvalues    EBANDS =    -11444.05521729
  atomic energy  EATOM  =     48229.88884101
  ---------------------------------------------------
  free energy    TOTEN  =      -450.83146794 eV

  energy without entropy =     -450.83146794  energy(sigma->0) =     -450.83146794


--------------------------------------------------------------------------------------------------------




--------------------------------------- Iteration      1(   6)  ---------------------------------------


    POTLOK:  cpu time      0.0328: real time      0.0328
    SETDIJ:  cpu time      0.1859: real time      0.1859
    TRIAL :  cpu time      0.6730: real time      0.6739
    CORREC:  cpu time      0.5331: real time      0.5334
    CHARGE:  cpu time      0.0543: real time      0.0543
    --------------------------------------------
      LOOP:  cpu time      1.4928: real time      1.4943

 eigenvalue-minimisations  :     0
 total energy-change (2. order) : 0.1740700E+03  (-0.9610869E+02)
 number of electron     457.9999253 magnetization 
 augmentation part      156.6862201 magnetization 

 DIPCOR: dipole corrections for dipol
 direction  3 min pos     1,
 dipolmoment           0.000000      0.000000      0.165947 electrons x Angstroem
 Tr[quadrupol]     -6355.845288

 energy correction for charged system         0.000000 eV
 dipol+quadrupol energy correction           -0.001639 eV
 added-field ion interaction         -1.335595 eV  (added to PSCEN)


 Free energy of the ion-electron system (eV)
  ---------------------------------------------------
  alpha Z        PSCENC =       904.64924021
  Ewald energy   TEWEN  =    137238.72939893
  -Hartree energ DENC   =   -177210.73034234
  -exchange      EXHF   =         0.00000000
  -V(xc)+E(xc)   XCENC  =      1914.77241588
  PAW double counting   =     36993.26757899   -40783.28463541
  entropy T*S    EENTRO =        -0.00000000
  eigenvalues    EBANDS =     -7564.05391929
  atomic energy  EATOM  =     48229.88884101
  ---------------------------------------------------
  free energy    TOTEN  =      -276.76142201 eV

  energy without entropy =     -276.76142201  energy(sigma->0) =     -276.76142201


--------------------------------------------------------------------------------------------------------




--------------------------------------- Iteration      1(   7)  ---------------------------------------


    POTLOK:  cpu time      0.0292: real time      0.0292
    SETDIJ:  cpu time      0.1884: real time      0.1884
    TRIAL :  cpu time      0.6018: real time      0.6020
    CORREC:  cpu time      0.5155: real time      0.5155
    CHARGE:  cpu time      0.0542: real time      0.0542
    --------------------------------------------
      LOOP:  cpu time      1.3946: real time      1.4039

 eigenvalue-minimisations  :     0
 total energy-change (2. order) :-0.9650582E+02  (-0.6892290E+01)
 number of electron     457.9999243 magnetization 
 augmentation part      154.8033827 magnetization 

 DIPCOR: dipole corrections for dipol
 direction  3 min pos     1,
 dipolmoment           0.000000      0.000000      0.154042 electrons x Angstroem
 Tr[quadrupol]     -6361.070639

 energy correction for charged system         0.000000 eV
 dipol+quadrupol energy correction           -0.001413 eV
 added-field ion interaction         -1.239779 eV  (added to PSCEN)


 Free energy of the ion-electron system (eV)
  ---------------------------------------------------
  alpha Z        PSCENC =       906.38941578
  Ewald energy   TEWEN  =    137238.72939893
  -Hartree energ DENC   =   -175365.51119198
  -exchange      EXHF   =         0.00000000
  -V(xc)+E(xc)   XCENC  =      1846.14111307
  PAW double counting   =     35886.18614871   -39745.18361875
  entropy T*S    EENTRO =        -0.00000000
  eigenvalues    EBANDS =     -9369.90734685
  atomic energy  EATOM  =     48229.88884101
  ---------------------------------------------------
  free energy    TOTEN  =      -373.26724008 eV

  energy without entropy =     -373.26724008  energy(sigma->0) =     -373.26724008


--------------------------------------------------------------------------------------------------------




--------------------------------------- Iteration      1(   8)  ---------------------------------------


    POTLOK:  cpu time      0.0288: real time      0.0288
    SETDIJ:  cpu time      0.1879: real time      0.1881
    TRIAL :  cpu time      0.6027: real time      0.6027
    CORREC:  cpu time      0.5175: real time      0.5176
    CHARGE:  cpu time      0.0554: real time      0.0554
    --------------------------------------------
      LOOP:  cpu time      1.4065: real time      1.4071

 eigenvalue-minimisations  :     0
 total energy-change (2. order) :-0.6907815E+01  (-0.4350851E+01)
 number of electron     457.9999226 magnetization 
 augmentation part      154.9236624 magnetization 

 DIPCOR: dipole corrections for dipol
 direction  3 min pos     1,
 dipolmoment           0.000000      0.000000      0.114448 electrons x Angstroem
 Tr[quadrupol]     -6359.130234

 energy correction for charged system         0.000000 eV
 dipol+quadrupol energy correction           -0.000780 eV
 added-field ion interaction         -0.921112 eV  (added to PSCEN)


 Free energy of the ion-electron system (eV)
  ---------------------------------------------------
  alpha Z        PSCENC =       906.83824949
  Ewald energy   TEWEN  =    137238.72939893
  -Hartree energ DENC   =   -175256.17333531
  -exchange      EXHF   =         0.00000000
  -V(xc)+E(xc)   XCENC  =      1836.33201202
  PAW double counting   =     35770.02259122   -39559.27157904
  entropy T*S    EENTRO =        -0.00000000
  eigenvalues    EBANDS =     -9546.54123339
  atomic energy  EATOM  =     48229.88884101
  ---------------------------------------------------
  free energy    TOTEN  =      -380.17505507 eV

  energy without entropy =     -380.17505507  energy(sigma->0) =     -380.17505507


--------------------------------------------------------------------------------------------------------




--------------------------------------- Iteration      1(   9)  ---------------------------------------


    POTLOK:  cpu time      0.0290: real time      0.0290
    SETDIJ:  cpu time      0.1885: real time      0.1885
    TRIAL :  cpu time      0.6037: real time      0.6039
    CORREC:  cpu time      0.5166: real time      0.5167
    CHARGE:  cpu time      0.0547: real time      0.0547
    --------------------------------------------
      LOOP:  cpu time      1.3980: real time      1.4072

 eigenvalue-minimisations  :     0
 total energy-change (2. order) :-0.4265692E+01  (-0.1724981E+01)
 number of electron     457.9999226 magnetization 
 augmentation part      154.9446793 magnetization 

 DIPCOR: dipole corrections for dipol
 direction  3 min pos     1,
 dipolmoment           0.000000      0.000000      0.170600 electrons x Angstroem
 Tr[quadrupol]     -6351.434197

 energy correction for charged system         0.000000 eV
 dipol+quadrupol energy correction           -0.001733 eV
 added-field ion interaction         -1.373047 eV  (added to PSCEN)


 Free energy of the ion-electron system (eV)
  ---------------------------------------------------
  alpha Z        PSCENC =       907.10414146
  Ewald energy   TEWEN  =    137238.72939893
  -Hartree energ DENC   =   -175114.92626572
  -exchange      EXHF   =         0.00000000
  -V(xc)+E(xc)   XCENC  =      1835.69985057
  PAW double counting   =     35685.35273114   -39511.25147331
  entropy T*S    EENTRO =        -0.00000000
  eigenvalues    EBANDS =     -9655.03797154
  atomic energy  EATOM  =     48229.88884101
  ---------------------------------------------------
  free energy    TOTEN  =      -384.44074746 eV

  energy without entropy =     -384.44074746  energy(sigma->0) =     -384.44074746


--------------------------------------------------------------------------------------------------------




--------------------------------------- Iteration      1(  10)  ---------------------------------------


    POTLOK:  cpu time      0.0291: real time      0.0291
    SETDIJ:  cpu time      0.1880: real time      0.1880
    TRIAL :  cpu time      0.6025: real time      0.6027
    CORREC:  cpu time      0.5158: real time      0.5159
    CHARGE:  cpu time      0.0544: real time      0.0544
    --------------------------------------------
      LOOP:  cpu time      1.4040: real time      1.4045

 eigenvalue-minimisations  :     0
 total energy-change (2. order) :-0.1742801E+01  (-0.5903780E+00)
 number of electron     457.9999232 magnetization 
 augmentation part      154.9074512 magnetization 

 DIPCOR: dipole corrections for dipol
 direction  3 min pos     1,
 dipolmoment           0.000000      0.000000      0.181619 electrons x Angstroem
 Tr[quadrupol]     -6350.593383

 energy correction for charged system         0.000000 eV
 dipol+quadrupol energy correction           -0.001964 eV
 added-field ion interaction         -1.461728 eV  (added to PSCEN)


 Free energy of the ion-electron system (eV)
  ---------------------------------------------------
  alpha Z        PSCENC =       906.68673634
  Ewald energy   TEWEN  =    137238.72939893
  -Hartree energ DENC   =   -174933.96508011
  -exchange      EXHF   =         0.00000000
  -V(xc)+E(xc)   XCENC  =      1834.01515642
  PAW double counting   =     35579.33732094   -39413.24927656
  entropy T*S    EENTRO =        -0.00000000
  eigenvalues    EBANDS =     -9827.62664499
  atomic energy  EATOM  =     48229.88884101
  ---------------------------------------------------
  free energy    TOTEN  =      -386.18354801 eV

  energy without entropy =     -386.18354801  energy(sigma->0) =     -386.18354801


--------------------------------------------------------------------------------------------------------




--------------------------------------- Iteration      1(  11)  ---------------------------------------


    POTLOK:  cpu time      0.0286: real time      0.0286
    SETDIJ:  cpu time      0.1880: real time      0.1880
    TRIAL :  cpu time      0.6024: real time      0.6024
    CORREC:  cpu time      0.5162: real time      0.5164
    CHARGE:  cpu time      0.0542: real time      0.0542
    --------------------------------------------
      LOOP:  cpu time      1.3943: real time      1.4042

 eigenvalue-minimisations  :     0
 total energy-change (2. order) :-0.5915151E+00  (-0.2096598E+00)
 number of electron     457.9999237 magnetization 
 augmentation part      155.0035011 magnetization 

 DIPCOR: dipole corrections for dipol
 direction  3 min pos     1,
 dipolmoment           0.000000      0.000000      0.155565 electrons x Angstroem
 Tr[quadrupol]     -6351.486124

 energy correction for charged system         0.000000 eV
 dipol+quadrupol energy correction           -0.001441 eV
 added-field ion interaction         -1.252040 eV  (added to PSCEN)


 Free energy of the ion-electron system (eV)
  ---------------------------------------------------
  alpha Z        PSCENC =       906.52534459
  Ewald energy   TEWEN  =    137238.72939893
  -Hartree energ DENC   =   -174872.29051337
  -exchange      EXHF   =         0.00000000
  -V(xc)+E(xc)   XCENC  =      1833.05271067
  PAW double counting   =     35523.19116750   -39348.98350362
  entropy T*S    EENTRO =        -0.00000000
  eigenvalues    EBANDS =     -9896.88850880
  atomic energy  EATOM  =     48229.88884101
  ---------------------------------------------------
  free energy    TOTEN  =      -386.77506308 eV

  energy without entropy =     -386.77506308  energy(sigma->0) =     -386.77506308


--------------------------------------------------------------------------------------------------------




--------------------------------------- Iteration      1(  12)  ---------------------------------------


    POTLOK:  cpu time      0.0301: real time      0.0301
    SETDIJ:  cpu time      0.1873: real time      0.1873
    TRIAL :  cpu time      0.6027: real time      0.6029
    CORREC:  cpu time      0.5172: real time      0.5172
    CHARGE:  cpu time      0.0546: real time      0.0547
    --------------------------------------------
      LOOP:  cpu time      1.3981: real time      1.4064

 eigenvalue-minimisations  :     0
 total energy-change (2. order) :-0.2096466E+00  (-0.7320237E-01)
 number of electron     457.9999238 magnetization 
 augmentation part      155.1062330 magnetization 

 DIPCOR: dipole corrections for dipol
 direction  3 min pos     1,
 dipolmoment           0.000000      0.000000      0.139978 electrons x Angstroem
 Tr[quadrupol]     -6352.205381

 energy correction for charged system         0.000000 eV
 dipol+quadrupol energy correction           -0.001166 eV
 added-field ion interaction         -1.126585 eV  (added to PSCEN)


 Free energy of the ion-electron system (eV)
  ---------------------------------------------------
  alpha Z        PSCENC =       906.70557713
  Ewald energy   TEWEN  =    137238.72939893
  -Hartree energ DENC   =   -174899.11472860
  -exchange      EXHF   =         0.00000000
  -V(xc)+E(xc)   XCENC  =      1833.32936290
  PAW double counting   =     35511.28424298   -39335.44907478
  entropy T*S    EENTRO =        -0.00000000
  eigenvalues    EBANDS =     -9872.35832924
  atomic energy  EATOM  =     48229.88884101
  ---------------------------------------------------
  free energy    TOTEN  =      -386.98470967 eV

  energy without entropy =     -386.98470967  energy(sigma->0) =     -386.98470967


--------------------------------------------------------------------------------------------------------




--------------------------------------- Iteration      1(  13)  ---------------------------------------


    POTLOK:  cpu time      0.0289: real time      0.0290
    SETDIJ:  cpu time      0.1878: real time      0.1878
    TRIAL :  cpu time      0.6035: real time      0.6036
    CORREC:  cpu time      0.5177: real time      0.5178
    CHARGE:  cpu time      0.0541: real time      0.0541
    --------------------------------------------
      LOOP:  cpu time      1.3985: real time      1.4069

 eigenvalue-minimisations  :     0
 total energy-change (2. order) :-0.7322197E-01  (-0.3236952E-01)
 number of electron     457.9999238 magnetization 
 augmentation part      155.1395522 magnetization 

 DIPCOR: dipole corrections for dipol
 direction  3 min pos     1,
 dipolmoment           0.000000      0.000000      0.135178 electrons x Angstroem
 Tr[quadrupol]     -6352.612465

 energy correction for charged system         0.000000 eV
 dipol+quadrupol energy correction           -0.001088 eV
 added-field ion interaction         -1.087955 eV  (added to PSCEN)


 Free energy of the ion-electron system (eV)
  ---------------------------------------------------
  alpha Z        PSCENC =       906.84212097
  Ewald energy   TEWEN  =    137238.72939893
  -Hartree energ DENC   =   -174928.73348942
  -exchange      EXHF   =         0.00000000
  -V(xc)+E(xc)   XCENC  =      1833.62845306
  PAW double counting   =     35510.40850140   -39337.51368932
  entropy T*S    EENTRO =        -0.00000000
  eigenvalues    EBANDS =     -9840.30806828
  atomic energy  EATOM  =     48229.88884101
  ---------------------------------------------------
  free energy    TOTEN  =      -387.05793164 eV

  energy without entropy =     -387.05793164  energy(sigma->0) =     -387.05793164


--------------------------------------------------------------------------------------------------------




--------------------------------------- Iteration      1(  14)  ---------------------------------------


    POTLOK:  cpu time      0.0289: real time      0.0289
    SETDIJ:  cpu time      0.1885: real time      0.1885
    TRIAL :  cpu time      0.6031: real time      0.6034
    CORREC:  cpu time      0.5160: real time      0.5160
    CHARGE:  cpu time      0.0546: real time      0.0546
    --------------------------------------------
      LOOP:  cpu time      1.3955: real time      1.4057

 eigenvalue-minimisations  :     0
 total energy-change (2. order) :-0.3239166E-01  (-0.1510392E-01)
 number of electron     457.9999237 magnetization 
 augmentation part      155.1242597 magnetization 

 DIPCOR: dipole corrections for dipol
 direction  3 min pos     1,
 dipolmoment           0.000000      0.000000      0.133708 electrons x Angstroem
 Tr[quadrupol]     -6352.926473

 energy correction for charged system         0.000000 eV
 dipol+quadrupol energy correction           -0.001064 eV
 added-field ion interaction         -1.076125 eV  (added to PSCEN)


 Free energy of the ion-electron system (eV)
  ---------------------------------------------------
  alpha Z        PSCENC =       906.87991897
  Ewald energy   TEWEN  =    137238.72939893
  -Hartree energ DENC   =   -174941.43922403
  -exchange      EXHF   =         0.00000000
  -V(xc)+E(xc)   XCENC  =      1833.63278195
  PAW double counting   =     35509.93091021   -39338.54806309
  entropy T*S    EENTRO =        -0.00000000
  eigenvalues    EBANDS =     -9826.16488725
  atomic energy  EATOM  =     48229.88884101
  ---------------------------------------------------
  free energy    TOTEN  =      -387.09032330 eV

  energy without entropy =     -387.09032330  energy(sigma->0) =     -387.09032330


--------------------------------------------------------------------------------------------------------




--------------------------------------- Iteration      1(  15)  ---------------------------------------


    POTLOK:  cpu time      0.0290: real time      0.0290
    SETDIJ:  cpu time      0.1881: real time      0.1883
    TRIAL :  cpu time      0.6022: real time      0.6022
    CORREC:  cpu time      0.5167: real time      0.5168
    CHARGE:  cpu time      0.0541: real time      0.0541
    --------------------------------------------
      LOOP:  cpu time      1.4041: real time      1.4046

 eigenvalue-minimisations  :     0
 total energy-change (2. order) :-0.1511379E-01  (-0.6268134E-02)
 number of electron     457.9999237 magnetization 
 augmentation part      155.1105687 magnetization 

 DIPCOR: dipole corrections for dipol
 direction  3 min pos     1,
 dipolmoment           0.000000      0.000000      0.133232 electrons x Angstroem
 Tr[quadrupol]     -6353.177785

 energy correction for charged system         0.000000 eV
 dipol+quadrupol energy correction           -0.001057 eV
 added-field ion interaction         -1.072295 eV  (added to PSCEN)


 Free energy of the ion-electron system (eV)
  ---------------------------------------------------
  alpha Z        PSCENC =       906.88794586
  Ewald energy   TEWEN  =    137238.72939893
  -Hartree energ DENC   =   -174950.07513057
  -exchange      EXHF   =         0.00000000
  -V(xc)+E(xc)   XCENC  =      1833.64477323
  PAW double counting   =     35513.11234689   -39340.96487392
  entropy T*S    EENTRO =        -0.00000000
  eigenvalues    EBANDS =     -9818.32873853
  atomic energy  EATOM  =     48229.88884101
  ---------------------------------------------------
  free energy    TOTEN  =      -387.10543709 eV

  energy without entropy =     -387.10543709  energy(sigma->0) =     -387.10543709


--------------------------------------------------------------------------------------------------------




--------------------------------------- Iteration      1(  16)  ---------------------------------------


    POTLOK:  cpu time      0.0288: real time      0.0288
    SETDIJ:  cpu time      0.1881: real time      0.1881
    TRIAL :  cpu time      0.6039: real time      0.6041
    CORREC:  cpu time      0.5152: real time      0.5152
    CHARGE:  cpu time      0.0541: real time      0.0541
    --------------------------------------------
      LOOP:  cpu time      1.3954: real time      1.4053

 eigenvalue-minimisations  :     0
[...]
    291       8.4679      0.00000
    292       8.5161      0.00000
    293       8.5191      0.00000
    294       8.5391      0.00000
    295       8.5755      0.00000
    296       8.5985      0.00000
    297       8.6033      0.00000
    298       8.6046      0.00000
    299       8.6167      0.00000
    300       8.8033      0.00000
    301       8.8864      0.00000
    302       8.9000      0.00000
    303       8.9015      0.00000
    304       9.1407      0.00000
    305       9.3427      0.00000
    306       9.3910      0.00000
    307       9.4070      0.00000
    308       9.4544      0.00000
    309       9.5216      0.00000
    310       9.5453      0.00000
    311       9.5539      0.00000
    312       9.7481      0.00000
    313       9.7764      0.00000
    314       9.8305      0.00000
    315       9.8317      0.00000
    316       9.8381      0.00000
    317      10.2340      0.00000
    318      10.2799      0.00000
    319      10.3463      0.00000
    320      10.3524      0.00000


--------------------------------------------------------------------------------------------------------


 soft charge-density along one line, spin component           1
         0         1         2         3         4         5         6         7         8         9
 total charge-density along one line

 pseudopotential strength for first ion, spin component:           1
 10.227  13.601   0.000   0.032   0.000  -0.000  -0.095  -0.000
 13.601  18.087   0.000   0.042   0.000  -0.000  -0.125  -0.000
  0.000   0.000  -4.365  -0.000  -0.000   8.551   0.000   0.000
  0.032   0.042  -0.000  -4.404  -0.000   0.000   8.609   0.000
  0.000   0.000  -0.000  -0.000  -4.365   0.000   0.000   8.551
 -0.000  -0.000   8.551   0.000   0.000 -18.889  -0.000  -0.000
 -0.095  -0.125   0.000   8.609   0.000  -0.000 -18.967   0.000
 -0.000  -0.000   0.000   0.000   8.551  -0.000   0.000 -18.889
 total augmentation occupancy for first ion, spin component:           1
  7.298  -3.300   0.000   2.009   0.000   0.000   0.369   0.000
 -3.300   1.876   0.000  -1.536   0.000   0.000  -0.224   0.000
  0.000   0.000   0.840   0.000   0.000   0.060   0.000   0.000
  2.009  -1.536   0.000   2.230   0.000   0.000   0.210   0.000
  0.000   0.000   0.000   0.000   0.840   0.000   0.000   0.060
  0.000   0.000   0.060   0.000   0.000   0.004   0.000   0.000
  0.369  -0.224   0.000   0.210   0.000   0.000   0.029   0.000
  0.000   0.000   0.000   0.000   0.060   0.000   0.000   0.004


------------------------ aborting loop because EDIFF is reached ----------------------------------------


    FORLOC:  cpu time      0.0038: real time      0.0038
    FORNL :  cpu time      0.4183: real time      0.4187
    STRESS:  cpu time      1.3358: real time      1.3361
    FORCOR:  cpu time      0.0265: real time      0.0265
    OFIELD:  cpu time      0.0001: real time      0.0001

  DFT-D2 method for vdW energy calculation
  -------------------------------------------------------------------

  Parameters of vdW forcefield:
         C6(Jnm^6/mol)     R0(A)
   -----------------------------
   C        1.750          1.452
   O        0.700          1.342
   Mg       0.630          1.243
   O        0.700          1.342

  vdW correction parametrized for the method pbe       

  IVDW =   1
  VDW_RADIUS =    50.000 A
  VDW_S6 =     0.750
  VDW_SR =     1.000
  VDW_D =    20.000
  LVDW_EWALD = F

  Number of pair interactions contributing to vdW energy:  768286
  Edisp (eV):   -3.69614
    FORVDW:  cpu time      0.1847: real time      0.1847

  FORCE on cell =-STRESS in cart. coord.  units (eV):
  Direction    XX          YY          ZZ          XY          YZ          ZX
  --------------------------------------------------------------------------------------
  Alpha Z   907.96410   907.96410   907.96410
  Ewald  157739.09172157739.09172************     0.00000     0.00000    -0.00000
  Hartree168146.36489168146.36489************    -0.00000    -0.00000    -0.00000
  E(xc)   -2500.82185 -2500.82185 -2504.71858    -0.00000     0.00000     0.00000
  Local  ************************335473.94756    -0.00000     0.00000    -0.00000
  n-local -2830.50406 -2831.31681 -2861.80260    -0.00000    -0.00000     0.00000
  augment  1054.00250  1054.00250  1044.16080    -0.00000     0.00000    -0.00000
  Kinetic  7494.28712  7496.87599  7517.77887    -0.00000     0.00000    -0.00001
  Fock        0.00000     0.00000     0.00000     0.00000     0.00000     0.00000
  vdW        -5.38153    -5.38153    -4.46290    -0.00000     0.00000    -0.00000
  -------------------------------------------------------------------------------------
  Total     -24.04863   -24.04863    -0.49179     0.00000     0.00000    -0.00000
  in kB     -25.35180   -25.35180    -0.51844     0.00000     0.00000    -0.00000
  external pressure =      -17.07 kB  Pullay stress =        0.00 kB


 VOLUME and BASIS-vectors are now :
 -----------------------------------------------------------------------------
  energy-cutoff  :      600.00
  volume of cell :     1519.82
      direct lattice vectors                 reciprocal lattice vectors
     8.440984654  0.000000000  0.000000000     0.118469591  0.000000000  0.000000000
     0.000000000  8.440984654  0.000000000     0.000000000  0.118469591  0.000000000
     0.000000000  0.000000000 21.330738491     0.000000000  0.000000000  0.046880702

  length of vectors
     8.440984654  8.440984654 21.330738491     0.118469591  0.118469591  0.046880702


 FORCES acting on ions:
    Electron-Ion                     Ewald-Force                    Non-Local-Force
 -----------------------------------------------------------------------------------------------
   0.109E-12 0.444E-12 -.846E+03   0.222E-14 0.400E-14 0.820E+03   0.000E+00 0.265E-22 0.267E+02
   0.429E-12 0.213E-11 -.146E+04   0.977E-14 0.666E-14 0.152E+04   0.000E+00 0.000E+00 -.599E+02
   -.424E-13 -.133E+00 0.208E+04   0.560E-13 0.133E+00 -.207E+04   0.132E-22 -.218E-03 -.704E+01
   0.133E+00 0.926E-13 0.208E+04   -.133E+00 0.671E-13 -.207E+04   0.218E-03 0.132E-22 -.704E+01
   -.442E-13 0.741E-13 0.713E+03   -.150E-10 0.150E-10 -.714E+03   0.000E+00 0.000E+00 0.500E+00
   0.499E+00 -.499E+00 0.715E+03   -.495E+00 0.495E+00 -.715E+03   -.264E-02 0.264E-02 0.528E+00
   -.138E-13 -.292E+01 -.642E+03   0.157E-11 0.291E+01 0.642E+03   0.132E-22 0.128E-01 -.165E+00
   0.292E+01 -.303E-12 -.642E+03   -.291E+01 -.151E-11 0.642E+03   -.128E-01 0.265E-22 -.165E+00
   -.302E-13 -.101E-12 -.200E+04   0.444E-12 -.416E-12 0.200E+04   0.000E+00 0.000E+00 0.596E+01
   0.186E+02 -.186E+02 -.198E+04   -.187E+02 0.187E+02 0.198E+04   0.957E-01 -.957E-01 0.605E+01
   -.569E-13 0.133E+00 0.208E+04   -.277E-12 -.133E+00 -.207E+04   -.132E-22 0.218E-03 -.704E+01
   0.129E+00 0.896E-12 0.208E+04   -.127E+00 0.131E-10 -.207E+04   -.172E-02 0.000E+00 -.704E+01
   -.501E-13 0.123E-11 0.715E+03   -.165E-10 0.000E+00 -.715E+03   -.331E-23 0.000E+00 0.466E+00
   0.499E+00 0.499E+00 0.715E+03   -.495E+00 -.495E+00 -.715E+03   -.264E-02 -.264E-02 0.528E+00
   -.174E-13 0.292E+01 -.642E+03   0.304E-11 -.291E+01 0.642E+03   0.000E+00 -.128E-01 -.165E+00
   0.433E+01 0.131E-11 -.635E+03   -.425E+01 0.178E-14 0.635E+03   -.786E-01 -.794E-22 -.256E+00
   -.274E-13 0.107E-11 -.199E+04   -.355E-13 -.995E-13 0.198E+04   0.000E+00 0.000E+00 0.597E+01
   0.186E+02 0.186E+02 -.198E+04   -.187E+02 -.187E+02 0.198E+04   0.957E-01 0.957E-01 0.605E+01
   0.918E-12 -.129E+00 0.208E+04   -.129E-10 0.127E+00 -.207E+04   0.000E+00 0.172E-02 -.704E+01
   -.133E+00 0.103E-12 0.208E+04   0.133E+00 0.471E-13 -.207E+04   -.218E-03 0.132E-22 -.704E+01
   0.796E-12 -.162E-12 0.715E+03   0.145E-11 0.150E-10 -.715E+03   -.120E-22 0.000E+00 0.466E+00
   -.499E+00 -.499E+00 0.715E+03   0.495E+00 0.495E+00 -.715E+03   0.264E-02 0.264E-02 0.528E+00
   0.807E-12 -.433E+01 -.635E+03   -.141E-11 0.425E+01 0.635E+03   -.662E-22 0.786E-01 -.256E+00
   -.292E+01 -.276E-12 -.642E+03   0.291E+01 -.156E-11 0.642E+03   0.128E-01 0.000E+00 -.165E+00
   0.899E-12 0.593E-12 -.199E+04   0.782E-13 -.355E-14 0.198E+04   -.529E-22 0.265E-22 0.597E+01
   -.186E+02 -.186E+02 -.198E+04   0.187E+02 0.187E+02 0.198E+04   -.957E-01 -.957E-01 0.605E+01
   0.916E-12 0.129E+00 0.208E+04   -.131E-10 -.127E+00 -.207E+04   0.662E-23 -.172E-02 -.704E+01
   -.129E+00 0.377E-12 0.208E+04   0.127E+00 0.131E-10 -.207E+04   0.172E-02 0.000E+00 -.704E+01
   0.843E-12 0.251E-11 0.715E+03   -.782E-13 0.355E-14 -.715E+03   0.132E-22 0.000E+00 0.596E+00
   -.499E+00 0.499E+00 0.715E+03   0.495E+00 -.495E+00 -.715E+03   0.264E-02 -.264E-02 0.528E+00
   0.814E-12 0.433E+01 -.635E+03   -.284E-13 -.425E+01 0.635E+03   0.529E-22 -.786E-01 -.256E+00
   -.433E+01 -.148E-11 -.635E+03   0.425E+01 0.000E+00 0.635E+03   0.786E-01 0.529E-22 -.256E+00
   0.918E-12 0.202E-11 -.191E+04   -.426E-13 -.391E-13 0.191E+04   0.662E-23 0.000E+00 0.361E+01
   -.186E+02 0.186E+02 -.198E+04   0.187E+02 -.187E+02 0.198E+04   -.957E-01 0.957E-01 0.605E+01
   -.551E-13 -.420E+00 0.535E+03   0.409E-13 0.416E+00 -.535E+03   -.662E-23 0.650E-02 -.908E-01
   0.420E+00 0.103E-12 0.535E+03   -.416E+00 0.391E-13 -.535E+03   -.650E-02 0.000E+00 -.908E-01
   -.615E-13 0.175E-12 0.156E+04   0.853E-11 -.844E-11 -.156E+04   -.265E-22 0.529E-22 0.349E+01
   0.975E-01 -.975E-01 0.156E+04   -.968E-01 0.968E-01 -.156E+04   -.105E-02 0.105E-02 0.349E+01
   -.600E-13 -.748E+01 -.152E+04   -.871E-12 0.742E+01 0.153E+04   0.132E-22 0.526E-01 -.503E+01
   0.748E+01 0.269E-12 -.152E+04   -.742E+01 0.881E-12 0.153E+04   -.526E-01 0.265E-22 -.503E+01
   -.480E-13 0.130E-12 -.478E+03   -.853E-13 0.639E-13 0.478E+03   0.000E+00 0.000E+00 0.253E+00
   0.267E+01 -.267E+01 -.473E+03   -.266E+01 0.266E+01 0.473E+03   -.477E-02 0.477E-02 0.325E+00
   -.584E-13 0.420E+00 0.535E+03   0.142E-13 -.416E+00 -.535E+03   0.265E-22 -.650E-02 -.908E-01
   0.406E+00 0.680E-12 0.536E+03   -.431E+00 -.764E-11 -.536E+03   0.344E-01 -.331E-23 -.111E+00
   -.629E-13 0.727E-12 0.156E+04   0.845E-11 -.796E-12 -.156E+04   0.000E+00 0.000E+00 0.349E+01
   0.975E-01 0.975E-01 0.156E+04   -.968E-01 -.968E-01 -.156E+04   -.105E-02 -.105E-02 0.349E+01
   -.627E-13 0.748E+01 -.152E+04   -.774E-12 -.742E+01 0.153E+04   0.662E-23 -.526E-01 -.503E+01
   0.245E+02 0.173E-11 -.149E+04   -.242E+02 0.810E-11 0.149E+04   -.370E+00 0.265E-22 -.504E+01
   -.565E-13 0.261E-12 -.473E+03   -.741E-11 0.711E-14 0.473E+03   0.000E+00 0.000E+00 0.278E+00
   0.267E+01 0.267E+01 -.473E+03   -.266E+01 -.266E+01 0.473E+03   -.477E-02 -.477E-02 0.325E+00
   0.313E-12 -.406E+00 0.536E+03   0.764E-11 0.431E+00 -.536E+03   0.000E+00 -.344E-01 -.111E+00
   -.420E+00 0.825E-13 0.535E+03   0.416E+00 0.142E-13 -.535E+03   0.650E-02 0.132E-22 -.908E-01
   0.385E-12 0.923E-12 0.156E+04   0.845E-12 -.846E-11 -.156E+04   0.000E+00 -.529E-22 0.349E+01
   -.975E-01 -.975E-01 0.156E+04   0.968E-01 0.968E-01 -.156E+04   0.105E-02 0.105E-02 0.349E+01
   0.374E-12 -.245E+02 -.149E+04   -.816E-11 0.242E+02 0.149E+04   -.265E-22 0.370E+00 -.504E+01
   -.748E+01 0.202E-12 -.152E+04   0.742E+01 0.924E-12 0.153E+04   0.526E-01 0.000E+00 -.503E+01
   0.310E-12 0.229E-12 -.473E+03   -.711E-14 0.738E-11 0.473E+03   0.000E+00 0.000E+00 0.278E+00
   -.267E+01 -.267E+01 -.473E+03   0.266E+01 0.266E+01 0.473E+03   0.477E-02 0.477E-02 0.325E+00
   0.326E-12 0.406E+00 0.536E+03   0.763E-11 -.431E+00 -.536E+03   -.662E-23 0.344E-01 -.111E+00
   -.406E+00 0.158E-11 0.536E+03   0.431E+00 -.769E-11 -.536E+03   -.344E-01 0.265E-22 -.111E+00
   0.375E-12 0.221E-11 0.156E+04   0.824E-12 -.838E-12 -.156E+04   0.000E+00 0.000E+00 0.348E+01
   -.975E-01 0.975E-01 0.156E+04   0.968E-01 -.968E-01 -.156E+04   0.105E-02 -.105E-02 0.349E+01
   0.386E-12 0.245E+02 -.149E+04   -.820E-11 -.242E+02 0.149E+04   -.132E-22 -.370E+00 -.504E+01
   -.245E+02 -.822E-12 -.149E+04   0.242E+02 0.819E-11 0.149E+04   0.370E+00 0.529E-22 -.504E+01
   0.287E-12 0.172E-11 -.472E+03   -.497E-13 0.426E-13 0.473E+03   0.000E+00 -.414E-24 -.205E+00
   -.267E+01 0.267E+01 -.473E+03   0.266E+01 -.266E+01 0.473E+03   0.477E-02 -.477E-02 0.325E+00
 -----------------------------------------------------------------------------------------------
   0.263E-10 0.255E-10 0.526E+02   0.130E-12 -.586E-13 0.375E-11   0.980E-16 -.173E-17 -.527E+02


 POSITION                                       TOTAL-FORCE (eV/Angst)
 -----------------------------------------------------------------------------------
      4.22049      4.22049     16.27814        -0.000000      0.000000      0.381817
      4.22049      4.22049     17.42496        -0.000000      0.000000     -0.348203
      0.00000      6.33074      7.50000        -0.000000      0.000040      0.350028
      2.11025      0.00000      7.50000        -0.000040      0.000000      0.350028
      0.00000      0.00000      9.61025        -0.000000      0.000000      0.031185
      2.11025      6.33074      9.61025         0.001536     -0.001536      0.032640
      0.00000      6.33023     11.73368        -0.000000      0.000922      0.035964
      2.11076      0.00000     11.73368        -0.000922      0.000000      0.035964
      0.00000      0.00000     13.83822        -0.000000      0.000000     -0.012167
      2.10905      6.33193     13.83447        -0.007551      0.007551     -0.015670
      0.00000      2.11025      7.50000        -0.000000     -0.000040      0.350028
      2.11025      4.22049      7.50000         0.000564      0.000000      0.350122
      0.00000      4.22049      9.61025        -0.000000      0.000000      0.039108
      2.11025      2.11025      9.61025         0.001536      0.001536      0.032640
      0.00000      2.11076     11.73368        -0.000000     -0.000922      0.035964
      2.11344      4.22049     11.73659        -0.003876      0.000000      0.035924
      0.00000      4.22049     13.83544        -0.000000      0.000000     -0.015108
      2.10905      2.10905     13.83447        -0.007551     -0.007551     -0.015670
      4.22049      6.33074      7.50000        -0.000000     -0.000564      0.350122
      6.33074      0.00000      7.50000         0.000040      0.000000      0.350028
      4.22049      0.00000      9.61025        -0.000000      0.000000      0.039108
      6.33074      6.33074      9.61025        -0.001536     -0.001536      0.032640
      4.22049      6.32754     11.73659        -0.000000      0.003876      0.035924
      6.33023      0.00000     11.73368         0.000922      0.000000      0.035964
      4.22049      0.00000     13.83544        -0.000000      0.000000     -0.015108
      6.33193      6.33193     13.83447         0.007551      0.007551     -0.015670
      4.22049      2.11025      7.50000        -0.000000      0.000564      0.350122
      6.33074      4.22049      7.50000        -0.000564      0.000000      0.350122
      4.22049      4.22049      9.61025        -0.000000      0.000000      0.045837
      6.33074      2.11025      9.61025        -0.001536      0.001536      0.032640
      4.22049      2.11344     11.73659        -0.000000     -0.003876      0.035924
      6.32754      4.22049     11.73659         0.003876      0.000000      0.035924
      4.22049      4.22049     13.87814        -0.000000      0.000000      0.037771
      6.33193      2.10905     13.83447         0.007551     -0.007551     -0.015670
      0.00000      6.33074      9.61025        -0.000000      0.001906      0.064427
      2.11025      0.00000      9.61025        -0.001906      0.000000      0.064427
      0.00000      0.00000      7.50000        -0.000000      0.000000     -0.516828
      2.11025      6.33074      7.50000        -0.000296      0.000296     -0.516555
      0.00000      6.33258     13.88587        -0.000000     -0.002796      0.016612
      2.10840      0.00000     13.88587         0.002796      0.000000      0.016612
      0.00000      0.00000     11.72785        -0.000000      0.000000      0.017261
      2.10979      6.33120     11.72890         0.004216     -0.004216      0.012785
      0.00000      2.11025      9.61025        -0.000000     -0.001906      0.064427
      2.11025      4.22049      9.61025         0.008948      0.000000      0.073287
      0.00000      4.22049      7.50000        -0.000000      0.000000     -0.516686
      2.11025      2.11025      7.50000        -0.000296     -0.000296     -0.516555
      0.00000      2.10840     13.88587        -0.000000      0.002796      0.016612
      2.10031      4.22049     13.88381        -0.013644      0.000000      0.017209
      0.00000      4.22049     11.72684        -0.000000      0.000000      0.015994
      2.10979      2.10979     11.72890         0.004216      0.004216      0.012785
      4.22049      6.33074      9.61025        -0.000000     -0.008948      0.073287
      6.33074      0.00000      9.61025         0.001906      0.000000      0.064427
      4.22049      0.00000      7.50000        -0.000000      0.000000     -0.516686
      6.33074      6.33074      7.50000         0.000296      0.000296     -0.516555
      4.22049      6.34068     13.88381        -0.000000      0.013644      0.017209
      6.33258      0.00000     13.88587        -0.002796      0.000000      0.016612
      4.22049      0.00000     11.72684        -0.000000      0.000000      0.015994
      6.33120      6.33120     11.72890        -0.004216     -0.004216      0.012785
      4.22049      2.11025      9.61025        -0.000000      0.008948      0.073287
      6.33074      4.22049      9.61025        -0.008948      0.000000      0.073287
      4.22049      4.22049      7.50000        -0.000000      0.000000     -0.517225
      6.33074      2.11025      7.50000         0.000296     -0.000296     -0.516555
      4.22049      2.10031     13.88381        -0.000000     -0.013644      0.017209
      6.34068      4.22049     13.88381         0.013644      0.000000      0.017209
      4.22049      4.22049     11.73684        -0.000000      0.000000      0.006835
      6.33120      2.10979     11.72890        -0.004216      0.004216      0.012785
 -----------------------------------------------------------------------------------
    total drift:                                0.000000      0.000000     -0.013713


--------------------------------------------------------------------------------------------------------



  FREE ENERGIE OF THE ION-ELECTRON SYSTEM (eV)
  ---------------------------------------------------
  free  energy   TOTEN  =      -390.81174507 eV

  energy  without entropy=     -390.81174507  energy(sigma->0) =     -390.81174507



--------------------------------------------------------------------------------------------------------


    POTLOK:  cpu time      0.2525: real time      0.2529


--------------------------------------------------------------------------------------------------------


     LOOP+:  cpu time     47.1631: real time     47.4760
    4ORBIT:  cpu time      0.0000: real time      0.0000

 total amount of memory used by VASP MPI-rank0    78528. kBytes
=======================================================================

   base      :      30000. kBytes
   nonl-proj :      29343. kBytes
   fftplans  :       3857. kBytes
   grid      :       5885. kBytes
   one-center:        137. kBytes
   wavefun   :       9306. kBytes

  
  
 General timing and accounting informations for this job:
 ========================================================
  
                  Total CPU time used (sec):       65.347
                            User time (sec):       63.176
                          System time (sec):        2.171
                         Elapsed time (sec):       70.140
  
                   Maximum memory used (kb):      176976.
                   Average memory used (kb):          N/A
  
                          Minor page faults:        31759
                          Major page faults:           51
                 Voluntary context switches:         7010
