 vasp.6.3.0 20Jan22 (build Apr  1 2022 16:44:48) complex                         
 executed on        HPECrayEX_GCC date 2022.09.24  18:10:46
 running  512 mpi-ranks, with    1 threads/rank
 distrk:  each k-point on  256 cores,    2 groups
 distr:  one band on NCORE=   4 cores,   64 groups


--------------------------------------------------------------------------------------------------------


 INCAR:
   SYSTEM = MgO-rocksalt
   ISMEAR = 0
   SIGMA = 0.05
   EDIFF = 1E-6
   ALGO = ALL
   ISTART = 0
   IBRION = 2
   NSW = 1000
   ISYM = 2
   ISIF = 2
   EDIFFG = -0.01
   DIPOL = 0.5 0.5 0.5
   IDIPOL = 3
   LDIPOL = .TRUE.
   GGA = MK
   LUSE_VDW = .TRUE.
   PARAM1 = 0.1234
   PARAM2 = 0.711357
   ZAB_VDW = -1.8867
   AGGAC = 0.0
   ENCUT = 600
   PREC = Normal
   LASPH = .TRUE.
   LREAL = .FALSE.
   ISPIN = 1
   NELM = 200
   NELMIN = 8
   NCORE = 4
   KPAR = 2
   LWAVE = .FALSE.
   LCHARG = .FALSE.

 POTCAR:    PAW_PBE Mg_pv 13Apr2007               
 POTCAR:    PAW_PBE O 08Apr2002                   
 -----------------------------------------------------------------------------
|                                                                             |
|               ----> ADVICE to this user running VASP <----                  |
|                                                                             |
|     You have switched on vdW-DFT.                                           |
|     This routine was written and supplied by Jiri Klimes. We recommend      |
|     that you carefully read and cite the following publications:            |
|       J. Klimes, D.R. Bowler, A. Michelides                                 |
|          J. Phys.: Cond Matt. 22 022201 (2010)                              |
|       J. Klimes, D.R. Bowler, A. Michelides                                 |
|          Phys. Rev. B. 83, 195131 (2011)                                    |
|     and references therein.                                                 |
|                                                                             |
 -----------------------------------------------------------------------------

 POTCAR:    PAW_PBE Mg_pv 13Apr2007               
   SHA256 =  f474ac0dd33840b9ae76c01d57fea79fdf77cdfbb07d5ade72c65f83c709b62b Mg_pv/POTCAR          
   COPYR  = (c) Copyright 13Apr2007 Georg Kresse                                                    
   COPYR  = This file is part of the software VASP. Any use, copying, and all other rights are regul
   COPYR  = If you do not have a valid VASP license, you may not use, copy or distribute this file. 
   VRHFIN =Mg: p6s2                                                                                 
   LEXCH  = PE                                                                                      
   EATOM  =  1056.7344 eV,   77.6678 Ry                                                             
                                                                                                    
   TITEL  = PAW_PBE Mg_pv 13Apr2007                                                                 
   LULTRA =        F    use ultrasoft PP ?                                                          
   IUNSCR =        1    unscreen: 0-lin 1-nonlin 2-no                                               
   RPACOR =    1.500    partial core radius                                                         
   POMASS =   24.305; ZVAL   =    8.000    mass and valenz                                          
   RCORE  =    2.000    outmost cutoff radius                                                       
   RWIGS  =    2.000; RWIGS  =    1.058    wigner-seitz radius (au A)                               
   ENMAX  =  403.929; ENMIN  =  302.947 eV                                                          
   RCLOC  =    1.506    cutoff for local pot                                                        
   LCOR   =        T    correct aug charges                                                         
   LPAW   =        T    paw PP                                                                      
   EAUG   =  758.780                                                                                
   DEXC   =    0.000                                                                                
   RMAX   =    2.045    core radius for proj-oper                                                   
   RAUG   =    1.300    factor for augmentation sphere                                              
   RDEP   =    2.025    radius for radial grids                                                     
   RDEPT  =    1.557    core radius for aug-charge                                                  
                                                                                                    
   Atomic configuration                                                                             
    5 entries                                                                                       
     n  l   j            E        occ.                                                              
     1  0  0.50     -1259.6230   2.0000                                                             
     2  0  0.50       -79.8442   2.0000                                                             
     2  1  1.50       -46.6121   6.0000                                                             
     3  0  0.50        -4.7055   2.0000                                                             
     3  2  1.50        -1.3606   0.0000                                                             
   Description                                                                                      
     l       E           TYP  RCUT    TYP  RCUT                                                     
     1    -46.6121073     23  1.600                                                                 
     1      2.7211652     23  1.600                                                                 
     0     -4.7054661     23  2.000                                                                 
     0     61.2262170     23  2.000                                                                 
     2     -1.3605826     23  2.000                                                                 
  local pseudopotential read in
  partial core-charges read in
  partial kinetic energy density read in
  atomic valenz-charges read in
  non local Contribution for L=           1  read in
    real space projection operators read in
  non local Contribution for L=           1  read in
    real space projection operators read in
  non local Contribution for L=           0  read in
    real space projection operators read in
  non local Contribution for L=           0  read in
    real space projection operators read in
  non local Contribution for L=           2  read in
    real space projection operators read in
    PAW grid and wavefunctions read in

   number of l-projection  operators is LMAX  =           5
   number of lm-projection operators is LMMAX =          13

 POTCAR:    PAW_PBE O 08Apr2002                   
   SHA256 =  818f92134a0a090dccd8ba1447fa70422a3b330e708bb4f08108d8ae51209ddf O/POTCAR              
   COPYR  = (c) Copyright 08Apr2002 Georg Kresse                                                    
   COPYR  = This file is part of the software VASP. Any use, copying, and all other rights are regul
   COPYR  = If you do not have a valid VASP license, you may not use, copy or distribute this file. 
   VRHFIN =O: s2p4                                                                                  
   LEXCH  = PE                                                                                      
   EATOM  =   432.3788 eV,   31.7789 Ry                                                             
                                                                                                    
   TITEL  = PAW_PBE O 08Apr2002                                                                     
   LULTRA =        F    use ultrasoft PP ?                                                          
   IUNSCR =        1    unscreen: 0-lin 1-nonlin 2-no                                               
   RPACOR =    1.200    partial core radius                                                         
   POMASS =   16.000; ZVAL   =    6.000    mass and valenz                                          
   RCORE  =    1.520    outmost cutoff radius                                                       
   RWIGS  =    1.550; RWIGS  =    0.820    wigner-seitz radius (au A)                               
   ENMAX  =  400.000; ENMIN  =  300.000 eV                                                          
   ICORE  =        2    local potential                                                             
   LCOR   =        T    correct aug charges                                                         
   LPAW   =        T    paw PP                                                                      
   EAUG   =  605.392                                                                                
   DEXC   =    0.000                                                                                
   RMAX   =    1.553    core radius for proj-oper                                                   
   RAUG   =    1.300    factor for augmentation sphere                                              
   RDEP   =    1.550    radius for radial grids                                                     
   RDEPT  =    1.329    core radius for aug-charge                                                  
                                                                                                    
   Atomic configuration                                                                             
    4 entries                                                                                       
     n  l   j            E        occ.                                                              
     1  0  0.50      -514.6923   2.0000                                                             
     2  0  0.50       -23.9615   2.0000                                                             
     2  1  0.50        -9.0305   4.0000                                                             
     3  2  1.50        -9.5241   0.0000                                                             
   Description                                                                                      
     l       E           TYP  RCUT    TYP  RCUT                                                     
     0    -23.9615318     23  1.200                                                                 
     0     -9.5240782     23  1.200                                                                 
     1     -9.0304911     23  1.520                                                                 
     1      8.1634956     23  1.520                                                                 
     2     -9.5240782      7  1.500                                                                 
  local pseudopotential read in
  partial core-charges read in
  partial kinetic energy density read in
  kinetic energy density of atom read in
  atomic valenz-charges read in
  non local Contribution for L=           0  read in
    real space projection operators read in
  non local Contribution for L=           0  read in
    real space projection operators read in
  non local Contribution for L=           1  read in
    real space projection operators read in
  non local Contribution for L=           1  read in
    real space projection operators read in
    PAW grid and wavefunctions read in

   number of l-projection  operators is LMAX  =           4
   number of lm-projection operators is LMMAX =           8

 -----------------------------------------------------------------------------
|                                                                             |
|               ----> ADVICE to this user running VASP <----                  |
|                                                                             |
|     You have a (more or less) 'large supercell' and for larger cells it     |
|     might be more efficient to use real-space projection operators.         |
|     Therefore, try LREAL= Auto in the INCAR file.                           |
|     Mind: For very accurate calculation, you might also keep the            |
|     reciprocal projection scheme (i.e. LREAL=.FALSE.).                      |
|                                                                             |
 -----------------------------------------------------------------------------

 -----------------------------------------------------------------------------
|                                                                             |
|               ----> ADVICE to this user running VASP <----                  |
|                                                                             |
|     You enforced a specific xc type in the INCAR file but a different       |
|     type was found in the POTCAR file.                                      |
|     I HOPE YOU KNOW WHAT YOU ARE DOING!                                     |
|                                                                             |
 -----------------------------------------------------------------------------

  PAW_PBE Mg_pv 13Apr2007               :
 energy of atom  1       EATOM=-1056.7344
 kinetic energy error for atom=    0.0221 (will be added to EATOM!!)
  PAW_PBE O 08Apr2002                   :
 energy of atom  2       EATOM= -432.3788
 kinetic energy error for atom=    0.0168 (will be added to EATOM!!)


 POSCAR: Mg  O
  positions in direct lattice
  No initial velocities read in
 exchange correlation table for  LEXCH =       43
   RHO(1)=    0.500       N(1)  =     2000
   RHO(2)=  100.500       N(2)  =     4000



--------------------------------------------------------------------------------------------------------


 ion  position               nearest neighbor table
   1  0.250  0.000  0.352-  33 2.11  35 2.11  36 2.11  43 2.11  52 2.11
   2  0.500  0.250  0.352-  34 2.11  35 2.11  36 2.11  44 2.11  51 2.11
   3  0.250  0.250  0.451-  35 2.11  39 2.11  33 2.11  34 2.11  41 2.11  50 2.11
   4  0.500  0.000  0.451-  36 2.11  40 2.11  33 2.11  34 2.11  42 2.11  49 2.11
   5  0.250  0.000  0.549-  33 2.11  37 2.11  39 2.11  40 2.11  47 2.11  56 2.11
   6  0.500  0.250  0.549-  34 2.11  38 2.11  39 2.11  40 2.11  48 2.11  55 2.11
   7  0.250  0.250  0.648-  39 2.11  38 2.11  37 2.11  45 2.11  54 2.11
   8  0.500  0.000  0.648-  40 2.11  38 2.11  37 2.11  46 2.11  53 2.11
   9  0.250  0.500  0.352-  41 2.11  35 2.11  43 2.11  44 2.11  60 2.11
  10  0.500  0.750  0.352-  42 2.11  36 2.11  43 2.11  44 2.11  59 2.11
  11  0.250  0.750  0.451-  43 2.11  47 2.11  42 2.11  33 2.11  41 2.11  58 2.11
  12  0.500  0.500  0.451-  44 2.11  48 2.11  42 2.11  34 2.11  41 2.11  57 2.11
  13  0.250  0.500  0.549-  41 2.11  45 2.11  39 2.11  47 2.11  48 2.11  64 2.11
  14  0.500  0.750  0.549-  42 2.11  46 2.11  40 2.11  47 2.11  48 2.11  63 2.11
  15  0.250  0.750  0.648-  47 2.11  45 2.11  46 2.11  37 2.11  62 2.11
  16  0.500  0.500  0.648-  48 2.11  45 2.11  46 2.11  38 2.11  61 2.11
  17  0.750  0.000  0.352-  49 2.11  36 2.11  51 2.11  52 2.11  59 2.11
  18  0.000  0.250  0.352-  50 2.11  35 2.11  51 2.11  52 2.11  60 2.11
  19  0.750  0.250  0.451-  51 2.11  55 2.11  50 2.11  34 2.11  49 2.11  57 2.11
  20  0.000  0.000  0.451-  52 2.11  56 2.11  50 2.11  33 2.11  49 2.11  58 2.11
  21  0.750  0.000  0.549-  49 2.11  53 2.11  40 2.11  55 2.11  56 2.11  63 2.11
  22  0.000  0.250  0.549-  50 2.11  54 2.11  39 2.11  55 2.11  56 2.11  64 2.11
  23  0.750  0.250  0.648-  55 2.11  53 2.11  54 2.11  38 2.11  61 2.11
  24  0.000  0.000  0.648-  56 2.11  53 2.11  54 2.11  37 2.11  62 2.11
  25  0.750  0.500  0.352-  57 2.11  51 2.11  44 2.11  59 2.11  60 2.11
  26  0.000  0.750  0.352-  58 2.11  52 2.11  43 2.11  59 2.11  60 2.11
  27  0.750  0.750  0.451-  59 2.11  63 2.11  57 2.11  58 2.11  42 2.11  49 2.11
  28  0.000  0.500  0.451-  60 2.11  64 2.11  57 2.11  58 2.11  41 2.11  50 2.11
  29  0.750  0.500  0.549-  57 2.11  61 2.11  48 2.11  55 2.11  63 2.11  64 2.11
  30  0.000  0.750  0.549-  58 2.11  62 2.11  47 2.11  56 2.11  63 2.11  64 2.11
  31  0.750  0.750  0.648-  63 2.11  53 2.11  61 2.11  62 2.11  46 2.11
  32  0.000  0.500  0.648-  64 2.11  54 2.11  61 2.11  62 2.11  45 2.11
  33  0.250  0.000  0.451-   1 2.11   5 2.11   4 2.11   3 2.11  11 2.11  20 2.11
  34  0.500  0.250  0.451-   2 2.11   6 2.11   4 2.11   3 2.11  12 2.11  19 2.11
  35  0.250  0.250  0.352-   3 2.11   2 2.11   1 2.11   9 2.11  18 2.11
  36  0.500  0.000  0.352-   4 2.11   2 2.11   1 2.11  10 2.11  17 2.11
  37  0.250  0.000  0.648-   5 2.11   7 2.11   8 2.11  15 2.11  24 2.11
  38  0.500  0.250  0.648-   6 2.11   7 2.11   8 2.11  16 2.11  23 2.11
  39  0.250  0.250  0.549-   3 2.11   7 2.11   6 2.11   5 2.11  13 2.11  22 2.11
  40  0.500  0.000  0.549-   4 2.11   8 2.11   6 2.11   5 2.11  14 2.11  21 2.11
  41  0.250  0.500  0.451-   9 2.11  13 2.11  11 2.11  12 2.11   3 2.11  28 2.11
  42  0.500  0.750  0.451-  10 2.11  14 2.11  11 2.11  12 2.11   4 2.11  27 2.11
  43  0.250  0.750  0.352-  11 2.11   9 2.11  10 2.11   1 2.11  26 2.11
  44  0.500  0.500  0.352-  12 2.11   9 2.11  10 2.11   2 2.11  25 2.11
  45  0.250  0.500  0.648-  13 2.11   7 2.11  15 2.11  16 2.11  32 2.11
  46  0.500  0.750  0.648-  14 2.11   8 2.11  15 2.11  16 2.11  31 2.11
  47  0.250  0.750  0.549-  11 2.11  15 2.11  13 2.11  14 2.11   5 2.11  30 2.11
  48  0.500  0.500  0.549-  12 2.11  16 2.11  13 2.11  14 2.11   6 2.11  29 2.11
  49  0.750  0.000  0.451-  17 2.11  21 2.11  19 2.11  20 2.11   4 2.11  27 2.11
  50  0.000  0.250  0.451-  18 2.11  22 2.11  19 2.11  20 2.11   3 2.11  28 2.11
  51  0.750  0.250  0.352-  19 2.11  17 2.11  18 2.11   2 2.11  25 2.11
  52  0.000  0.000  0.352-  20 2.11  17 2.11  18 2.11   1 2.11  26 2.11
  53  0.750  0.000  0.648-  21 2.11   8 2.11  23 2.11  24 2.11  31 2.11
  54  0.000  0.250  0.648-  22 2.11   7 2.11  23 2.11  24 2.11  32 2.11
  55  0.750  0.250  0.549-  19 2.11  23 2.11  21 2.11  22 2.11   6 2.11  29 2.11
  56  0.000  0.000  0.549-  20 2.11  24 2.11  21 2.11  22 2.11   5 2.11  30 2.11
  57  0.750  0.500  0.451-  25 2.11  29 2.11  12 2.11  27 2.11  28 2.11  19 2.11
  58  0.000  0.750  0.451-  26 2.11  30 2.11  11 2.11  27 2.11  28 2.11  20 2.11
  59  0.750  0.750  0.352-  27 2.11  17 2.11  25 2.11  26 2.11  10 2.11
  60  0.000  0.500  0.352-  28 2.11  18 2.11  25 2.11  26 2.11   9 2.11
  61  0.750  0.500  0.648-  29 2.11  23 2.11  16 2.11  31 2.11  32 2.11
  62  0.000  0.750  0.648-  30 2.11  24 2.11  15 2.11  31 2.11  32 2.11
  63  0.750  0.750  0.549-  27 2.11  31 2.11  14 2.11  29 2.11  30 2.11  21 2.11
  64  0.000  0.500  0.549-  28 2.11  32 2.11  13 2.11  29 2.11  30 2.11  22 2.11

  LATTYP: Found a simple tetragonal cell.
 ALAT       =     8.4405822621
 C/A-ratio  =     2.5271285836
  
  Lattice vectors:
  
 A1 = (   8.4405822621,   0.0000000000,   0.0000000000)
 A2 = (   0.0000000000,   8.4405822621,   0.0000000000)
 A3 = (   0.0000000000,   0.0000000000,  21.3304366966)


Analysis of symmetry for initial positions (statically):
=====================================================================
 Subroutine PRICEL returns following result:
 
  LATTYP: Found a simple tetragonal cell.
 ALAT       =     2.9841964773
 C/A-ratio  =     7.1477990335
  
  Lattice vectors:
  
 A1 = (   2.1101455655,  -2.1101455655,   0.0000000000)
 A2 = (   2.1101455655,   2.1101455655,   0.0000000000)
 A3 = (   0.0000000000,   0.0000000000,  21.3304366966)
 
   8 primitive cells build up your supercell.
 

 Routine SETGRP: Setting up the symmetry group for a 
 simple tetragonal supercell.


 Subroutine GETGRP returns: Found 16 space group operations
 (whereof  8 operations were pure point group operations)
 out of a pool of 16 trial point group operations.


The static configuration has the point symmetry C_4v.
 The point group associated with its full space group is D_4h.


Analysis of symmetry for dynamics (positions and initial velocities):
=====================================================================
 Subroutine PRICEL returns following result:
 
  LATTYP: Found a simple tetragonal cell.
 ALAT       =     2.9841964773
 C/A-ratio  =     7.1477990335
  
  Lattice vectors:
  
 A1 = (   2.1101455655,  -2.1101455655,   0.0000000000)
 A2 = (   2.1101455655,   2.1101455655,   0.0000000000)
 A3 = (   0.0000000000,   0.0000000000,  21.3304366966)
 
   8 primitive cells build up your supercell.
 

 Routine SETGRP: Setting up the symmetry group for a 
 simple tetragonal supercell.


 Subroutine GETGRP returns: Found 16 space group operations
 (whereof  8 operations were pure point group operations)
 out of a pool of 16 trial point group operations.


The dynamic configuration has the point symmetry C_4v.
 The point group associated with its full space group is D_4h.


Analysis of constrained symmetry for selective dynamics:
=====================================================================
 Subroutine PRICEL returns following result:
 
  LATTYP: Found a simple tetragonal cell.
 ALAT       =     2.9841964773
 C/A-ratio  =     7.1477990335
  
  Lattice vectors:
  
 A1 = (   2.1101455655,  -2.1101455655,   0.0000000000)
 A2 = (   2.1101455655,   2.1101455655,   0.0000000000)
 A3 = (   0.0000000000,   0.0000000000,  21.3304366966)
 
   8 primitive cells build up your supercell.
 

 Routine SETGRP: Setting up the symmetry group for a 
 simple tetragonal supercell.


 Subroutine GETGRP returns: Found  8 space group operations
 (whereof  8 operations were pure point group operations)
 out of a pool of 16 trial point group operations.


The constrained configuration has the point symmetry C_4v.


 Subroutine INISYM returns: Found  8 space group operations
 (whereof  8 operations are pure point group operations),
 and found     8 'primitive' translations


----------------------------------------------------------------------------------------

                                     Primitive cell                                     

  volume of cell :     189.9567

  direct lattice vectors                    reciprocal lattice vectors
     2.110145566 -2.110145566  0.000000000     0.236950478 -0.236950478  0.000000000
     2.110145566  2.110145566  0.000000000     0.236950478  0.236950478 -0.000000000
     0.000000000  0.000000000 21.330436697    -0.000000000  0.000000000  0.046881366

  length of vectors
     2.984196477  2.984196477 21.330436697     0.335098579  0.335098579  0.046881366

  position of ions in fractional coordinates (direct lattice)
     0.500000000  0.500000000  0.351610242
     0.000000000  0.000000000  0.450536747
     0.500000000  0.500000000  0.549463253
     0.000000000  0.000000000  0.648389758
     0.500000000  0.500000000  0.450536747
     0.000000000  0.000000000  0.351610242
     0.500000000  0.500000000  0.648389758
     0.000000000  0.000000000  0.549463253

  ion indices of the primitive-cell ions
   primitive index   ion index
                 1           1
                 2           3
                 3           5
                 4           7
                 5          33
                 6          35
                 7          37
                 8          39

----------------------------------------------------------------------------------------



 KPOINTS: pymatgen v2020.8.13 with grid density = 

Automatic generation of k-mesh.
 Grid dimensions read from file:
 generate k-points for:    2    2    1

 Generating k-lattice:

  Cartesian coordinates                     Fractional coordinates (reciprocal lattice)
     0.059237619  0.000000000  0.000000000     0.500000000  0.000000000  0.000000000
     0.000000000  0.059237619  0.000000000     0.000000000  0.500000000  0.000000000
     0.000000000  0.000000000  0.046881366     0.000000000  0.000000000  1.000000000

  Length of vectors
     0.059237619  0.059237619  0.046881366

  Shift w.r.t. Gamma in fractional coordinates (k-lattice)
     0.000000000  0.000000000  0.000000000

 
 Subroutine IBZKPT returns following result:
 ===========================================
 
 Found      3 irreducible k-points:
 
 Following reciprocal coordinates:
            Coordinates               Weight
  0.000000  0.000000  0.000000      1.000000
  0.500000  0.000000  0.000000      2.000000
  0.500000  0.500000  0.000000      1.000000
 
 Following cartesian coordinates:
            Coordinates               Weight
  0.000000  0.000000  0.000000      1.000000
  0.059238  0.000000  0.000000      2.000000
  0.059238  0.059238  0.000000      1.000000
 


--------------------------------------------------------------------------------------------------------




 Dimension of arrays:
   k-points           NKPTS =      3   k-points in BZ     NKDIM =      3   number of bands    NBANDS=    320
   number of dos      NEDOS =    301   number of ions     NIONS =     64
   non local maximal  LDIM  =      5   non local SUM 2l+1 LMDIM =     13
   total plane-waves  NPLWV = 373248
   max r-space proj   IRMAX =      1   max aug-charges    IRDMAX=   5040
   dimension x,y,z NGX =    54 NGY =   54 NGZ =  128
   dimension x,y,z NGXF=   108 NGYF=  108 NGZF=  256
   support grid    NGXF=   108 NGYF=  108 NGZF=  256
   ions per type =              32  32
   NGX,Y,Z   is equivalent  to a cutoff of  10.64, 10.64,  9.98 a.u.
   NGXF,Y,Z  is equivalent  to a cutoff of  21.27, 21.27, 19.95 a.u.

 SYSTEM =  MgO-rocksalt                            
 POSCAR =  Mg  O                                   

 Startparameter for this run:
   NWRITE =      2    write-flag & timer
   PREC   = normal    normal or accurate (medium, high low for compatibility)
   ISTART =      0    job   : 0-new  1-cont  2-samecut
   ICHARG =      2    charge: 1-file 2-atom 10-const
   ISPIN  =      1    spin polarized calculation?
   LNONCOLLINEAR =      F non collinear calculations
   LSORBIT =      F    spin-orbit coupling
   INIWAV =      1    electr: 0-lowe 1-rand  2-diag
   LASPH  =      T    aspherical Exc in radial PAW
 Electronic Relaxation 1
   ENCUT  =  600.0 eV  44.10 Ry    6.64 a.u.  16.86 16.86 42.60*2*pi/ulx,y,z
   ENINI  =  600.0     initial cutoff
   ENAUG  =  758.8 eV  augmentation charge cutoff
   NELM   =    200;   NELMIN=  8; NELMDL= -5     # of ELM steps 
   EDIFF  = 0.1E-05   stopping-criterion for ELM
   LREAL  =      F    real-space projection
   NLSPLINE    = F    spline interpolate recip. space projectors
   LCOMPAT=      F    compatible to vasp.4.4
   GGA_COMPAT  = T    GGA compatible to vasp.4.4-vasp.4.6
   LMAXPAW     = -100 max onsite density
   LMAXMIX     =    2 max onsite mixed and CHGCAR
   VOSKOWN=      0    Vosko Wilk Nusair interpolation
   ROPT   =    0.00000   0.00000
 Ionic relaxation
   EDIFFG = -.1E-01   stopping-criterion for IOM
   NSW    =   1000    number of steps for IOM
   NBLOCK =      1;   KBLOCK =   1000    inner block; outer block 
   IBRION =      2    ionic relax: 0-MD 1-quasi-New 2-CG
   NFREE  =      1    steps in history (QN), initial steepest desc. (CG)
   ISIF   =      2    stress and relaxation
   IWAVPR =     11    prediction:  0-non 1-charg 2-wave 3-comb
   ISYM   =      2    0-nonsym 1-usesym 2-fastsym
   LCORR  =      T    Harris-Foulkes like correction to forces

   POTIM  = 0.5000    time-step for ionic-motion
   TEIN   =    0.0    initial temperature
   TEBEG  =    0.0;   TEEND  =   0.0 temperature during run
   SMASS  =  -3.00    Nose mass-parameter (am)
   estimated Nose-frequenzy (Omega)   =  0.10E-29 period in steps = 0.13E+47 mass=  -0.163E-26a.u.
   SCALEE = 1.0000    scale energy and forces
   NPACO  =    256;   APACO  = 10.0  distance and # of slots for P.C.
   PSTRESS=    0.0 pullay stress

  Mass of Ions in am
   POMASS =  24.30 16.00
  Ionic Valenz
   ZVAL   =   8.00  6.00
  Atomic Wigner-Seitz radii
   RWIGS  =  -1.00 -1.00
  virtual crystal weights 
   VCA    =   1.00  1.00
   NELECT =     448.0000    total number of electrons
   NUPDOWN=      -1.0000    fix difference up-down

 DOS related values:
   EMIN   =  10.00;   EMAX   =-10.00  energy-range for DOS
   EFERMI =   0.00
   ISMEAR =     0;   SIGMA  =   0.05  broadening in eV -4-tet -1-fermi 0-gaus

 Electronic relaxation 2 (details)
   IALGO  =     58    algorithm
   LDIAG  =      T    sub-space diagonalisation (order eigenvalues)
   LSUBROT=      F    optimize rotation matrix (better conditioning)
   TURBO    =      0    0=normal 1=particle mesh
   IRESTART =      0    0=no restart 2=restart with 2 vectors
   NREBOOT  =      0    no. of reboots
   NMIN     =      0    reboot dimension
   EREF     =   0.00    reference energy to select bands
   IMIX   =      4    mixing-type and parameters
     AMIX     =   0.40;   BMIX     =  1.00
     AMIX_MAG =   1.60;   BMIX_MAG =  1.00
     AMIN     =   0.10
     WC   =   100.;   INIMIX=   1;  MIXPRE=   1;  MAXMIX= -45

 Intra band minimization:
   WEIMIN = 0.0010     energy-eigenvalue tresh-hold
   EBREAK =  0.78E-09  absolut break condition
   DEPER  =   0.30     relativ break condition  

   TIME   =   0.40     timestep for ELM

  volume/ion in A,a.u.               =      23.74       160.24
  Fermi-wavevector in a.u.,A,eV,Ry     =   1.089564  2.058977 16.152145  1.187149
  Thomas-Fermi vector in A             =   2.225770

 Write flags
   LWAVE        =      F    write WAVECAR
   LDOWNSAMPLE  =      F    k-point downsampling of WAVECAR
   LCHARG       =      F    write CHGCAR
   LVTOT        =      F    write LOCPOT, total local potential
   LVHAR        =      F    write LOCPOT, Hartree potential only
   LELF         =      F    write electronic localiz. function (ELF)
   LORBIT       =      0    0 simple, 1 ext, 2 COOP (PROOUT), +10 PAW based schemes


 Dipole corrections
   LMONO  =      F    monopole corrections only (constant potential shift)
   LDIPOL =      T    correct potential (dipole corrections)
   IDIPOL =      3    1-x, 2-y, 3-z, 4-all directions 
   EPSILON=  1.0000000 bulk dielectric constant

 Exchange correlation treatment:
   GGA     =    MK    GGA type
   LEXCH   =    43    internal setting for exchange type
   LIBXC   =     F    Libxc                    
   VOSKOWN =     0    Vosko Wilk Nusair interpolation
   LHFCALC =     F    Hartree Fock is set to
   LHFONE  =     F    Hartree Fock one center treatment
   AEXX    =    0.0000 exact exchange contribution

 vdW DFT:
   LUSE_VDW   =     T    switch on vdW DFT
   Zab_VDW    =******    correlation parameter
   PARAM1     =0.1234
   PARAM2     =0.7114
   PARAM3     =0.0000
   -- rVV10 --
   BPARAM     = 6.3000
   CPARAM     = 0.0093

 Linear response parameters
   LEPSILON=     F    determine dielectric tensor
   LRPA    =     F    only Hartree local field effects (RPA)
   LNABLA  =     F    use nabla operator in PAW spheres
   LVEL    =     F    velocity operator in full k-point grid
   CSHIFT  =0.1000    complex shift for real part using Kramers Kronig
   OMEGAMAX=  -1.0    maximum frequency
   DEG_THRESHOLD= 0.2000000E-02 threshold for treating states as degnerate
   RTIME   =   -0.100 relaxation time in fs
  (WPLASMAI=    0.000 imaginary part of plasma frequency in eV, 0.658/RTIME)
   DFIELD  = 0.0000000 0.0000000 0.0000000 field for delta impulse in time

  Optional k-point grid parameters
   LKPOINTS_OPT  =     F    use optional k-point grid
   KPOINTS_OPT_MODE=     1    mode for optional k-point grid

 Orbital magnetization related:
   ORBITALMAG=     F  switch on orbital magnetization
   LCHIMAG   =     F  perturbation theory with respect to B field
   DQ        =  0.001000  dq finite difference perturbation B field
   LLRAUG    =     F  two centre corrections for induced B field



--------------------------------------------------------------------------------------------------------


 conjugate gradient relaxation of ions
   using selective dynamics as specified on POSCAR
 charge density and potential will be updated during run
 non-spin polarized calculation
 Conjugate gradient for all bands (Freysoldt, et al. PRB 79, 241103 (2009))
 preconditioned conjugated gradient                                        
 perform sub-space diagonalisation
    before iterative eigenvector-optimisation
 modified Broyden-mixing scheme, WC =      100.0
 initial mixing is a Kerker type mixing with AMIX =  0.4000 and BMIX =      1.0000
 Hartree-type preconditioning will be used
 using additional bands           96
 reciprocal scheme for non local part
 use partial core corrections
 no Harris-corrections to forces 
 use gradient corrections 
 use of overlap-Matrix (Vanderbilt PP)
 Gauss-broadening in eV      SIGMA  =   0.05


--------------------------------------------------------------------------------------------------------


  energy-cutoff  :      600.00
  volume of cell :     1519.65
      direct lattice vectors                 reciprocal lattice vectors
     8.440582262  0.000000000  0.000000000     0.118475239  0.000000000  0.000000000
     0.000000000  8.440582262  0.000000000     0.000000000  0.118475239  0.000000000
     0.000000000  0.000000000 21.330436697     0.000000000  0.000000000  0.046881366

  length of vectors
     8.440582262  8.440582262 21.330436697     0.118475239  0.118475239  0.046881366



 k-points in units of 2pi/SCALE and weight: pymatgen v2020.8.13 with grid density = 
   0.00000000  0.00000000  0.00000000       0.250
   0.05923762  0.00000000  0.00000000       0.500
   0.05923762  0.05923762  0.00000000       0.250

 k-points in reciprocal lattice and weights: pymatgen v2020.8.13 with grid density = 
   0.00000000  0.00000000  0.00000000       0.250
   0.50000000  0.00000000  0.00000000       0.500
   0.50000000  0.50000000  0.00000000       0.250

 position of ions in fractional coordinates (direct lattice) 
   0.25000000  0.00000000  0.35161024
   0.50000000  0.25000000  0.35161024
   0.25000000  0.25000000  0.45053675
   0.50000000  0.00000000  0.45053675
   0.25000000  0.00000000  0.54946325
   0.50000000  0.25000000  0.54946325
   0.25000000  0.25000000  0.64838976
   0.50000000  0.00000000  0.64838976
   0.25000000  0.50000000  0.35161024
   0.50000000  0.75000000  0.35161024
   0.25000000  0.75000000  0.45053675
   0.50000000  0.50000000  0.45053675
   0.25000000  0.50000000  0.54946325
   0.50000000  0.75000000  0.54946325
   0.25000000  0.75000000  0.64838976
   0.50000000  0.50000000  0.64838976
   0.75000000  0.00000000  0.35161024
   0.00000000  0.25000000  0.35161024
   0.75000000  0.25000000  0.45053675
   0.00000000  0.00000000  0.45053675
   0.75000000  0.00000000  0.54946325
   0.00000000  0.25000000  0.54946325
   0.75000000  0.25000000  0.64838976
   0.00000000  0.00000000  0.64838976
   0.75000000  0.50000000  0.35161024
   0.00000000  0.75000000  0.35161024
   0.75000000  0.75000000  0.45053675
   0.00000000  0.50000000  0.45053675
   0.75000000  0.50000000  0.54946325
   0.00000000  0.75000000  0.54946325
   0.75000000  0.75000000  0.64838976
   0.00000000  0.50000000  0.64838976
   0.25000000  0.00000000  0.45053675
   0.50000000  0.25000000  0.45053675
   0.25000000  0.25000000  0.35161024
   0.50000000  0.00000000  0.35161024
   0.25000000  0.00000000  0.64838976
   0.50000000  0.25000000  0.64838976
   0.25000000  0.25000000  0.54946325
   0.50000000  0.00000000  0.54946325
   0.25000000  0.50000000  0.45053675
   0.50000000  0.75000000  0.45053675
   0.25000000  0.75000000  0.35161024
   0.50000000  0.50000000  0.35161024
   0.25000000  0.50000000  0.64838976
   0.50000000  0.75000000  0.64838976
   0.25000000  0.75000000  0.54946325
   0.50000000  0.50000000  0.54946325
   0.75000000  0.00000000  0.45053675
   0.00000000  0.25000000  0.45053675
   0.75000000  0.25000000  0.35161024
   0.00000000  0.00000000  0.35161024
   0.75000000  0.00000000  0.64838976
   0.00000000  0.25000000  0.64838976
   0.75000000  0.25000000  0.54946325
   0.00000000  0.00000000  0.54946325
   0.75000000  0.50000000  0.45053675
   0.00000000  0.75000000  0.45053675
   0.75000000  0.75000000  0.35161024
   0.00000000  0.50000000  0.35161024
   0.75000000  0.50000000  0.64838976
   0.00000000  0.75000000  0.64838976
   0.75000000  0.75000000  0.54946325
   0.00000000  0.50000000  0.54946325

 position of ions in cartesian coordinates  (Angst):
   2.11014557  0.00000000  7.50000000
   4.22029113  2.11014557  7.50000000
   2.11014557  2.11014557  9.61014557
   4.22029113  0.00000000  9.61014557
   2.11014557  0.00000000 11.72029113
   4.22029113  2.11014557 11.72029113
   2.11014557  2.11014557 13.83043670
   4.22029113  0.00000000 13.83043670
   2.11014557  4.22029113  7.50000000
   4.22029113  6.33043670  7.50000000
   2.11014557  6.33043670  9.61014557
   4.22029113  4.22029113  9.61014557
   2.11014557  4.22029113 11.72029113
   4.22029113  6.33043670 11.72029113
   2.11014557  6.33043670 13.83043670
   4.22029113  4.22029113 13.83043670
   6.33043670  0.00000000  7.50000000
   0.00000000  2.11014557  7.50000000
   6.33043670  2.11014557  9.61014557
   0.00000000  0.00000000  9.61014557
   6.33043670  0.00000000 11.72029113
   0.00000000  2.11014557 11.72029113
   6.33043670  2.11014557 13.83043670
   0.00000000  0.00000000 13.83043670
   6.33043670  4.22029113  7.50000000
   0.00000000  6.33043670  7.50000000
   6.33043670  6.33043670  9.61014557
   0.00000000  4.22029113  9.61014557
   6.33043670  4.22029113 11.72029113
   0.00000000  6.33043670 11.72029113
   6.33043670  6.33043670 13.83043670
   0.00000000  4.22029113 13.83043670
   2.11014557  0.00000000  9.61014557
   4.22029113  2.11014557  9.61014557
   2.11014557  2.11014557  7.50000000
   4.22029113  0.00000000  7.50000000
   2.11014557  0.00000000 13.83043670
   4.22029113  2.11014557 13.83043670
   2.11014557  2.11014557 11.72029113
   4.22029113  0.00000000 11.72029113
   2.11014557  4.22029113  9.61014557
   4.22029113  6.33043670  9.61014557
   2.11014557  6.33043670  7.50000000
   4.22029113  4.22029113  7.50000000
   2.11014557  4.22029113 13.83043670
   4.22029113  6.33043670 13.83043670
   2.11014557  6.33043670 11.72029113
   4.22029113  4.22029113 11.72029113
   6.33043670  0.00000000  9.61014557
   0.00000000  2.11014557  9.61014557
   6.33043670  2.11014557  7.50000000
   0.00000000  0.00000000  7.50000000
   6.33043670  0.00000000 13.83043670
   0.00000000  2.11014557 13.83043670
   6.33043670  2.11014557 11.72029113
   0.00000000  0.00000000 11.72029113
   6.33043670  4.22029113  9.61014557
   0.00000000  6.33043670  9.61014557
   6.33043670  6.33043670  7.50000000
   0.00000000  4.22029113  7.50000000
   6.33043670  4.22029113 13.83043670
   0.00000000  6.33043670 13.83043670
   6.33043670  6.33043670 11.72029113
   0.00000000  4.22029113 11.72029113



--------------------------------------------------------------------------------------------------------


 k-point   1 :   0.0000 0.0000 0.0000  plane waves:   50729
 k-point   2 :   0.5000 0.0000 0.0000  plane waves:   50790
 k-point   3 :   0.5000 0.5000 0.0000  plane waves:   50752

 maximum and minimum number of plane-waves per node :     12716    12632

 maximum number of plane-waves:     50790
 maximum index in each direction: 
   IXMAX=   16   IYMAX=   16   IZMAX=   42
   IXMIN=  -17   IYMIN=  -17   IZMIN=  -42


 parallel 3D FFT for wavefunctions:
    minimum data exchange during FFTs selected (reduces bandwidth)
 parallel 3D FFT for charge:
    minimum data exchange during FFTs selected (reduces bandwidth)


 total amount of memory used by VASP MPI-rank0    69719. kBytes
=======================================================================

   base      :      30000. kBytes
   nonl-proj :      20988. kBytes
   fftplans  :       3857. kBytes
   grid      :       5439. kBytes
   one-center:        129. kBytes
   wavefun   :       9306. kBytes

     INWAV:  cpu time      0.0000: real time      0.0000
 Broyden mixing: mesh for mixing (old mesh)
   NGX = 33   NGY = 33   NGZ = 85
  (NGX  =108   NGY  =108   NGZ  =256)
  gives a total of  92565 points

 initial charge density was supplied:
 charge density of overlapping atoms calculated
 number of electron     448.0000000 magnetization 
 keeping initial charge density in first step


--------------------------------------------------------------------------------------------------------


 Maximum index for augmentation-charges          331 (set IRDMAX)


--------------------------------------------------------------------------------------------------------


 First call to EWALD:  gamma=   0.154
 Maximum number of real-space cells 4x 4x 2
 Maximum number of reciprocal cells 2x 2x 5

    FEWALD:  cpu time      0.0062: real time      0.0062


--------------------------------------- Iteration      1(   1)  ---------------------------------------


vdW kernel read from vdw_kernel.bindat
  0.0000  0.2424  0.5071  0.7962  1.1119  1.4567  1.8333  2.2446  2.6937  3.1842
  3.7199  4.3049  4.9438  5.6415  6.4036  7.2358  8.1446  9.1372 10.2212 11.4050
 12.6979 14.1099 15.6519 17.3360 19.1751 21.1837 23.3773 25.7729 28.3892 31.2465
 34.3669 37.7748 41.4965 45.5611 50.0000

    POTLOK:  cpu time      0.6884: real time      0.6922
    SETDIJ:  cpu time      0.1970: real time      0.1970
    TRIAL :  cpu time      4.6757: real time      4.7338
    CORREC:  cpu time      0.0010: real time      0.0011
    --------------------------------------------
      LOOP:  cpu time      5.5662: real time      5.6283

 eigenvalue-minimisations  :  2304
 total energy-change (2. order) : 0.4151315E+04  (-0.3003602E+05)
 number of electron     448.0000000 magnetization 
 augmentation part      448.0000000 magnetization 

 DIPCOR: dipole corrections for dipol
 direction  3 min pos     1,
 dipolmoment           0.000000      0.000000      0.000000 electrons x Angstroem
 Tr[quadrupol]     -5963.987791

 energy correction for charged system         0.000000 eV
 dipol+quadrupol energy correction           -0.000000 eV
 added-field ion interaction         -0.000000 eV  (added to PSCEN)


 Free energy of the ion-electron system (eV)
  ---------------------------------------------------
  alpha Z        PSCENC =       875.35512513
  Ewald energy   TEWEN  =    141443.21405107
  -Hartree energ DENC   =   -176939.98578622
  -exchange      EXHF   =         0.00000000
  -V(xc)+E(xc)   XCENC  =      1744.91376335
  PAW double counting   =     31883.82553272   -35683.02952655
  entropy T*S    EENTRO =        -0.00678798
  eigenvalues    EBANDS =     -6956.84948022
  atomic energy  EATOM  =     47783.87840219
  ---------------------------------------------------
  free energy    TOTEN  =      4151.31529349 eV

  energy without entropy =     4151.32208146  energy(sigma->0) =     4151.31868748


--------------------------------------------------------------------------------------------------------




--------------------------------------- Iteration      1(   2)  ---------------------------------------


    TRIAL :  cpu time      1.7014: real time      1.7018
    CORREC:  cpu time      0.0003: real time      0.0003
    --------------------------------------------
      LOOP:  cpu time      1.7066: real time      1.7158

 eigenvalue-minimisations  :  2304
 total energy-change (2. order) :-0.4173760E+04  (-0.4105153E+04)
 number of electron     448.0000000 magnetization 
 augmentation part      448.0000000 magnetization 

 DIPCOR: dipole corrections for dipol
 direction  3 min pos     1,
 dipolmoment           0.000000      0.000000      0.000000 electrons x Angstroem
 Tr[quadrupol]     -5963.987791

 energy correction for charged system         0.000000 eV
 dipol+quadrupol energy correction           -0.000000 eV
 added-field ion interaction         -0.000000 eV  (added to PSCEN)


 Free energy of the ion-electron system (eV)
  ---------------------------------------------------
  alpha Z        PSCENC =       875.35512513
  Ewald energy   TEWEN  =    141443.21405107
  -Hartree energ DENC   =   -176939.98578622
  -exchange      EXHF   =         0.00000000
  -V(xc)+E(xc)   XCENC  =      1744.91376335
  PAW double counting   =     31883.82553272   -35683.02952655
  entropy T*S    EENTRO =        -0.00000000
  eigenvalues    EBANDS =    -11130.61671733
  atomic energy  EATOM  =     47783.87840219
  ---------------------------------------------------
  free energy    TOTEN  =       -22.44515565 eV

  energy without entropy =      -22.44515565  energy(sigma->0) =      -22.44515565


--------------------------------------------------------------------------------------------------------




--------------------------------------- Iteration      1(   3)  ---------------------------------------


    TRIAL :  cpu time      1.7681: real time      1.7685
    CORREC:  cpu time      0.0003: real time      0.0003
    --------------------------------------------
      LOOP:  cpu time      1.7721: real time      1.7818

 eigenvalue-minimisations  :  2304
 total energy-change (2. order) :-0.3010443E+03  (-0.2990881E+03)
 number of electron     448.0000000 magnetization 
 augmentation part      448.0000000 magnetization 

 DIPCOR: dipole corrections for dipol
 direction  3 min pos     1,
 dipolmoment           0.000000      0.000000      0.000000 electrons x Angstroem
 Tr[quadrupol]     -5963.987791

 energy correction for charged system         0.000000 eV
 dipol+quadrupol energy correction           -0.000000 eV
 added-field ion interaction         -0.000000 eV  (added to PSCEN)


 Free energy of the ion-electron system (eV)
  ---------------------------------------------------
  alpha Z        PSCENC =       875.35512513
  Ewald energy   TEWEN  =    141443.21405107
  -Hartree energ DENC   =   -176939.98578622
  -exchange      EXHF   =         0.00000000
  -V(xc)+E(xc)   XCENC  =      1744.91376335
  PAW double counting   =     31883.82553272   -35683.02952655
  entropy T*S    EENTRO =        -0.00000000
  eigenvalues    EBANDS =    -11431.66098121
  atomic energy  EATOM  =     47783.87840219
  ---------------------------------------------------
  free energy    TOTEN  =      -323.48941952 eV

  energy without entropy =     -323.48941952  energy(sigma->0) =     -323.48941952


--------------------------------------------------------------------------------------------------------




--------------------------------------- Iteration      1(   4)  ---------------------------------------


    TRIAL :  cpu time      1.7506: real time      1.7507
    CORREC:  cpu time      0.0003: real time      0.0003
    --------------------------------------------
      LOOP:  cpu time      1.7565: real time      1.7635

 eigenvalue-minimisations  :  2304
 total energy-change (2. order) :-0.5644167E+01  (-0.5637885E+01)
 number of electron     448.0000000 magnetization 
 augmentation part      448.0000000 magnetization 

 DIPCOR: dipole corrections for dipol
 direction  3 min pos     1,
 dipolmoment           0.000000      0.000000      0.000000 electrons x Angstroem
 Tr[quadrupol]     -5963.987791

 energy correction for charged system         0.000000 eV
 dipol+quadrupol energy correction           -0.000000 eV
 added-field ion interaction         -0.000000 eV  (added to PSCEN)


 Free energy of the ion-electron system (eV)
  ---------------------------------------------------
  alpha Z        PSCENC =       875.35512513
  Ewald energy   TEWEN  =    141443.21405107
  -Hartree energ DENC   =   -176939.98578622
  -exchange      EXHF   =         0.00000000
  -V(xc)+E(xc)   XCENC  =      1744.91376335
  PAW double counting   =     31883.82553272   -35683.02952655
  entropy T*S    EENTRO =        -0.00000000
  eigenvalues    EBANDS =    -11437.30514829
  atomic energy  EATOM  =     47783.87840219
  ---------------------------------------------------
  free energy    TOTEN  =      -329.13358660 eV

  energy without entropy =     -329.13358660  energy(sigma->0) =     -329.13358660


--------------------------------------------------------------------------------------------------------




--------------------------------------- Iteration      1(   5)  ---------------------------------------


    TRIAL :  cpu time      1.9092: real time      1.9092
    CORREC:  cpu time      0.0003: real time      0.0003
    CHARGE:  cpu time      0.1126: real time      0.1132
    --------------------------------------------
      LOOP:  cpu time      2.0277: real time      2.0364

 eigenvalue-minimisations  :  2432
 total energy-change (2. order) :-0.7880650E-01  (-0.7880339E-01)
 number of electron     447.9999306 magnetization 
 augmentation part      158.8816399 magnetization 

 DIPCOR: dipole corrections for dipol
 direction  3 min pos     1,
 dipolmoment           0.000000      0.000000      0.000000 electrons x Angstroem
 Tr[quadrupol]     -5963.987791

 energy correction for charged system         0.000000 eV
 dipol+quadrupol energy correction           -0.000000 eV
 added-field ion interaction         -0.000000 eV  (added to PSCEN)


 Free energy of the ion-electron system (eV)
  ---------------------------------------------------
  alpha Z        PSCENC =       875.35512513
  Ewald energy   TEWEN  =    141443.21405107
  -Hartree energ DENC   =   -176939.98578622
  -exchange      EXHF   =         0.00000000
  -V(xc)+E(xc)   XCENC  =      1744.91376335
  PAW double counting   =     31883.82553272   -35683.02952655
  entropy T*S    EENTRO =        -0.00000000
  eigenvalues    EBANDS =    -11437.38395479
  atomic energy  EATOM  =     47783.87840219
  ---------------------------------------------------
  free energy    TOTEN  =      -329.21239310 eV

  energy without entropy =     -329.21239310  energy(sigma->0) =     -329.21239310


--------------------------------------------------------------------------------------------------------




--------------------------------------- Iteration      1(   6)  ---------------------------------------


    POTLOK:  cpu time      0.2661: real time      0.2661
    SETDIJ:  cpu time      0.1250: real time      0.1250
    TRIAL :  cpu time      0.5556: real time      0.5559
    CORREC:  cpu time      0.6872: real time      0.6875
    CHARGE:  cpu time      0.0982: real time      0.0982
    --------------------------------------------
      LOOP:  cpu time      1.7450: real time      1.7460

 eigenvalue-minimisations  :     0
 total energy-change (2. order) : 0.1771711E+03  (-0.9749328E+02)
 number of electron     447.9999232 magnetization 
 augmentation part      156.1231863 magnetization 

 DIPCOR: dipole corrections for dipol
 direction  3 min pos     1,
 dipolmoment           0.000000      0.000000      0.002114 electrons x Angstroem
 Tr[quadrupol]     -6001.418817

 energy correction for charged system         0.000000 eV
 dipol+quadrupol energy correction           -0.000000 eV
 added-field ion interaction         -0.000000 eV  (added to PSCEN)


 Free energy of the ion-electron system (eV)
  ---------------------------------------------------
  alpha Z        PSCENC =       875.35512513
  Ewald energy   TEWEN  =    141443.21405107
  -Hartree energ DENC   =   -180934.06777145
  -exchange      EXHF   =         0.00000000
  -V(xc)+E(xc)   XCENC  =      1867.45120442
  PAW double counting   =     36136.78538004   -39882.58390849
  entropy T*S    EENTRO =        -0.00000000
  eigenvalues    EBANDS =     -7442.07381670
  atomic energy  EATOM  =     47783.87840219
  ---------------------------------------------------
  free energy    TOTEN  =      -152.04133380 eV

  energy without entropy =     -152.04133380  energy(sigma->0) =     -152.04133380


--------------------------------------------------------------------------------------------------------




--------------------------------------- Iteration      1(   7)  ---------------------------------------


    POTLOK:  cpu time      0.2498: real time      0.2498
    SETDIJ:  cpu time      0.1367: real time      0.1367
    TRIAL :  cpu time      0.5029: real time      0.5030
    CORREC:  cpu time      0.6963: real time      0.6964
    CHARGE:  cpu time      0.0977: real time      0.0977
    --------------------------------------------
      LOOP:  cpu time      1.6881: real time      1.6969

 eigenvalue-minimisations  :     0
 total energy-change (2. order) :-0.9787678E+02  (-0.7298217E+01)
 number of electron     447.9999222 magnetization 
 augmentation part      154.1287637 magnetization 

 DIPCOR: dipole corrections for dipol
 direction  3 min pos     1,
 dipolmoment           0.000000      0.000000      0.000361 electrons x Angstroem
 Tr[quadrupol]     -6006.742470

 energy correction for charged system         0.000000 eV
 dipol+quadrupol energy correction           -0.000000 eV
 added-field ion interaction         -0.000000 eV  (added to PSCEN)


 Free energy of the ion-electron system (eV)
  ---------------------------------------------------
  alpha Z        PSCENC =       875.35512495
  Ewald energy   TEWEN  =    141443.21405107
  -Hartree energ DENC   =   -179010.55013367
  -exchange      EXHF   =         0.00000000
  -V(xc)+E(xc)   XCENC  =      1799.56160784
  PAW double counting   =     35064.07741749   -38884.35384528
  entropy T*S    EENTRO =        -0.00000000
  eigenvalues    EBANDS =     -9321.10073734
  atomic energy  EATOM  =     47783.87840219
  ---------------------------------------------------
  free energy    TOTEN  =      -249.91811276 eV

  energy without entropy =     -249.91811276  energy(sigma->0) =     -249.91811276


--------------------------------------------------------------------------------------------------------




--------------------------------------- Iteration      1(   8)  ---------------------------------------


    POTLOK:  cpu time      0.2457: real time      0.2457
    SETDIJ:  cpu time      0.1320: real time      0.1320
    TRIAL :  cpu time      0.5030: real time      0.5030
    CORREC:  cpu time      0.6873: real time      0.6873
    CHARGE:  cpu time      0.0973: real time      0.0973
    --------------------------------------------
      LOOP:  cpu time      1.6783: real time      1.6787

 eigenvalue-minimisations  :     0
 total energy-change (2. order) :-0.7317437E+01  (-0.4645699E+01)
 number of electron     447.9999208 magnetization 
 augmentation part      154.2588146 magnetization 

 DIPCOR: dipole corrections for dipol
 direction  3 min pos     1,
 dipolmoment           0.000000      0.000000      0.000260 electrons x Angstroem
 Tr[quadrupol]     -6004.610976

 energy correction for charged system         0.000000 eV
 dipol+quadrupol energy correction           -0.000000 eV
 added-field ion interaction          0.000000 eV  (added to PSCEN)


 Free energy of the ion-electron system (eV)
  ---------------------------------------------------
  alpha Z        PSCENC =       875.35512513
  Ewald energy   TEWEN  =    141443.21405107
  -Hartree energ DENC   =   -178896.39000469
  -exchange      EXHF   =         0.00000000
  -V(xc)+E(xc)   XCENC  =      1788.97499568
  PAW double counting   =     34919.08196426   -38664.87956155
  entropy T*S    EENTRO =        -0.00000000
  eigenvalues    EBANDS =     -9506.47052210
  atomic energy  EATOM  =     47783.87840219
  ---------------------------------------------------
  free energy    TOTEN  =      -257.23555003 eV

  energy without entropy =     -257.23555003  energy(sigma->0) =     -257.23555003


--------------------------------------------------------------------------------------------------------




--------------------------------------- Iteration      1(   9)  ---------------------------------------


    POTLOK:  cpu time      0.2441: real time      0.2442
    SETDIJ:  cpu time      0.1502: real time      0.1505
    TRIAL :  cpu time      0.5014: real time      0.5014
    CORREC:  cpu time      0.6834: real time      0.6835
    CHARGE:  cpu time      0.0969: real time      0.0969
    --------------------------------------------
      LOOP:  cpu time      1.6888: real time      1.6896

 eigenvalue-minimisations  :     0
 total energy-change (2. order) :-0.4586815E+01  (-0.1962377E+01)
 number of electron     447.9999211 magnetization 
 augmentation part      154.3605320 magnetization 

 DIPCOR: dipole corrections for dipol
 direction  3 min pos     1,
 dipolmoment           0.000000      0.000000      0.000196 electrons x Angstroem
 Tr[quadrupol]     -5998.412505

 energy correction for charged system         0.000000 eV
 dipol+quadrupol energy correction           -0.000000 eV
 added-field ion interaction         -0.000000 eV  (added to PSCEN)


 Free energy of the ion-electron system (eV)
  ---------------------------------------------------
  alpha Z        PSCENC =       875.35512512
  Ewald energy   TEWEN  =    141443.21405107
  -Hartree energ DENC   =   -178757.54892877
  -exchange      EXHF   =         0.00000000
  -V(xc)+E(xc)   XCENC  =      1788.41558595
  PAW double counting   =     34817.38878291   -38601.09025064
  entropy T*S    EENTRO =        -0.00000000
  eigenvalues    EBANDS =     -9611.43513301
  atomic energy  EATOM  =     47783.87840219
  ---------------------------------------------------
  free energy    TOTEN  =      -261.82236518 eV

  energy without entropy =     -261.82236518  energy(sigma->0) =     -261.82236518


--------------------------------------------------------------------------------------------------------




--------------------------------------- Iteration      1(  10)  ---------------------------------------


    POTLOK:  cpu time      0.2594: real time      0.2594
    SETDIJ:  cpu time      0.1234: real time      0.1234
    TRIAL :  cpu time      0.5019: real time      0.5019
    CORREC:  cpu time      0.6937: real time      0.6938
    CHARGE:  cpu time      0.0972: real time      0.0972
    --------------------------------------------
      LOOP:  cpu time      1.6891: real time      1.6895

 eigenvalue-minimisations  :     0
 total energy-change (2. order) :-0.1970217E+01  (-0.6718735E+00)
 number of electron     447.9999218 magnetization 
 augmentation part      154.3275601 magnetization 

 DIPCOR: dipole corrections for dipol
 direction  3 min pos     1,
 dipolmoment           0.000000      0.000000     -0.000001 electrons x Angstroem
 Tr[quadrupol]     -5997.528207

 energy correction for charged system         0.000000 eV
 dipol+quadrupol energy correction           -0.000000 eV
 added-field ion interaction         -0.000000 eV  (added to PSCEN)


 Free energy of the ion-electron system (eV)
  ---------------------------------------------------
  alpha Z        PSCENC =       875.35512513
  Ewald energy   TEWEN  =    141443.21405107
  -Hartree energ DENC   =   -178604.33037493
  -exchange      EXHF   =         0.00000000
  -V(xc)+E(xc)   XCENC  =      1787.24932763
  PAW double counting   =     34713.50001990   -38509.23538702
  entropy T*S    EENTRO =        -0.00000000
  eigenvalues    EBANDS =     -9753.42374589
  atomic energy  EATOM  =     47783.87840219
  ---------------------------------------------------
  free energy    TOTEN  =      -263.79258193 eV

  energy without entropy =     -263.79258193  energy(sigma->0) =     -263.79258193


--------------------------------------------------------------------------------------------------------




--------------------------------------- Iteration      1(  11)  ---------------------------------------


    POTLOK:  cpu time      0.2468: real time      0.2468
    SETDIJ:  cpu time      0.1489: real time      0.1489
    TRIAL :  cpu time      0.5020: real time      0.5020
    CORREC:  cpu time      0.6862: real time      0.6862
    CHARGE:  cpu time      0.0973: real time      0.0973
    --------------------------------------------
      LOOP:  cpu time      1.6849: real time      1.6952

 eigenvalue-minimisations  :     0
 total energy-change (2. order) :-0.6724218E+00  (-0.2031026E+00)
 number of electron     447.9999221 magnetization 
 augmentation part      154.4009132 magnetization 

 DIPCOR: dipole corrections for dipol
 direction  3 min pos     1,
 dipolmoment           0.000000      0.000000     -0.000088 electrons x Angstroem
 Tr[quadrupol]     -5997.716985

 energy correction for charged system         0.000000 eV
 dipol+quadrupol energy correction           -0.000000 eV
 added-field ion interaction         -0.000000 eV  (added to PSCEN)


 Free energy of the ion-electron system (eV)
  ---------------------------------------------------
  alpha Z        PSCENC =       875.35512513
  Ewald energy   TEWEN  =    141443.21405107
  -Hartree energ DENC   =   -178539.18407437
  -exchange      EXHF   =         0.00000000
  -V(xc)+E(xc)   XCENC  =      1786.23945402
  PAW double counting   =     34659.18369990   -38446.09819239
  entropy T*S    EENTRO =        -0.00000000
  eigenvalues    EBANDS =     -9827.05346926
  atomic energy  EATOM  =     47783.87840219
  ---------------------------------------------------
  free energy    TOTEN  =      -264.46500371 eV

  energy without entropy =     -264.46500371  energy(sigma->0) =     -264.46500371


--------------------------------------------------------------------------------------------------------




--------------------------------------- Iteration      1(  12)  ---------------------------------------


    POTLOK:  cpu time      0.2485: real time      0.2485
    SETDIJ:  cpu time      0.1377: real time      0.1377
    TRIAL :  cpu time      0.5024: real time      0.5024
    CORREC:  cpu time      0.6861: real time      0.6861
    CHARGE:  cpu time      0.0972: real time      0.0972
    --------------------------------------------
      LOOP:  cpu time      1.6762: real time      1.6856

 eigenvalue-minimisations  :     0
 total energy-change (2. order) :-0.2031016E+00  (-0.6420482E-01)
 number of electron     447.9999222 magnetization 
 augmentation part      154.4898939 magnetization 

 DIPCOR: dipole corrections for dipol
 direction  3 min pos     1,
 dipolmoment           0.000000      0.000000     -0.000109 electrons x Angstroem
 Tr[quadrupol]     -5997.935011

 energy correction for charged system         0.000000 eV
 dipol+quadrupol energy correction           -0.000000 eV
 added-field ion interaction          0.000000 eV  (added to PSCEN)


 Free energy of the ion-electron system (eV)
  ---------------------------------------------------
  alpha Z        PSCENC =       875.35512513
  Ewald energy   TEWEN  =    141443.21405107
  -Hartree energ DENC   =   -178541.72976206
  -exchange      EXHF   =         0.00000000
  -V(xc)+E(xc)   XCENC  =      1786.28721881
  PAW double counting   =     34648.33640393   -38433.18283993
  entropy T*S    EENTRO =        -0.00000000
  eigenvalues    EBANDS =     -9826.82670444
  atomic energy  EATOM  =     47783.87840219
  ---------------------------------------------------
  free energy    TOTEN  =      -264.66810530 eV

  energy without entropy =     -264.66810530  energy(sigma->0) =     -264.66810530


--------------------------------------------------------------------------------------------------------




--------------------------------------- Iteration      1(  13)  ---------------------------------------


    POTLOK:  cpu time      0.2497: real time      0.2497
    SETDIJ:  cpu time      0.1218: real time      0.1218
    TRIAL :  cpu time      0.5009: real time      0.5009
    CORREC:  cpu time      0.6874: real time      0.6875
    CHARGE:  cpu time      0.0968: real time      0.0968
    --------------------------------------------
      LOOP:  cpu time      1.6608: real time      1.6702

 eigenvalue-minimisations  :     0
 total energy-change (2. order) :-0.6421187E-01  (-0.2442583E-01)
 number of electron     447.9999223 magnetization 
 augmentation part      154.5163618 magnetization 

 DIPCOR: dipole corrections for dipol
 direction  3 min pos     1,
 dipolmoment           0.000000      0.000000     -0.000082 electrons x Angstroem
 Tr[quadrupol]     -5998.067318

 energy correction for charged system         0.000000 eV
 dipol+quadrupol energy correction           -0.000000 eV
 added-field ion interaction         -0.000000 eV  (added to PSCEN)


 Free energy of the ion-electron system (eV)
  ---------------------------------------------------
  alpha Z        PSCENC =       875.35512513
  Ewald energy   TEWEN  =    141443.21405107
  -Hartree energ DENC   =   -178553.17853495
  -exchange      EXHF   =         0.00000000
  -V(xc)+E(xc)   XCENC  =      1786.47324548
  PAW double counting   =     34647.34822685   -38434.95029125
  entropy T*S    EENTRO =        -0.00000000
  eigenvalues    EBANDS =     -9812.87254168
  atomic energy  EATOM  =     47783.87840219
  ---------------------------------------------------
  free energy    TOTEN  =      -264.73231717 eV

  energy without entropy =     -264.73231717  energy(sigma->0) =     -264.73231717


--------------------------------------------------------------------------------------------------------




--------------------------------------- Iteration      1(  14)  ---------------------------------------


    POTLOK:  cpu time      0.2616: real time      0.2616
    SETDIJ:  cpu time      0.1261: real time      0.1261
    TRIAL :  cpu time      0.5009: real time      0.5010
    CORREC:  cpu time      0.6877: real time      0.6877
    CHARGE:  cpu time      0.0970: real time      0.0970
    --------------------------------------------
      LOOP:  cpu time      1.6776: real time      1.6858

 eigenvalue-minimisations  :     0
 total energy-change (2. order) :-0.2442725E-01  (-0.1067649E-01)
 number of electron     447.9999223 magnetization 
 augmentation part      154.5069904 magnetization 

 DIPCOR: dipole corrections for dipol
 direction  3 min pos     1,
 dipolmoment           0.000000      0.000000     -0.000029 electrons x Angstroem
 Tr[quadrupol]     -5998.221167

 energy correction for charged system         0.000000 eV
 dipol+quadrupol energy correction           -0.000000 eV
 added-field ion interaction          0.000000 eV  (added to PSCEN)


 Free energy of the ion-electron system (eV)
  ---------------------------------------------------
  alpha Z        PSCENC =       875.35512513
  Ewald energy   TEWEN  =    141443.21405107
  -Hartree energ DENC   =   -178557.73223848
  -exchange      EXHF   =         0.00000000
  -V(xc)+E(xc)   XCENC  =      1786.48267686
  PAW double counting   =     34647.13389141   -38435.87324945
  entropy T*S    EENTRO =        -0.00000000
  eigenvalues    EBANDS =     -9807.21540315
  atomic energy  EATOM  =     47783.87840219
  ---------------------------------------------------
  free energy    TOTEN  =      -264.75674443 eV

  energy without entropy =     -264.75674443  energy(sigma->0) =     -264.75674443


--------------------------------------------------------------------------------------------------------




--------------------------------------- Iteration      1(  15)  ---------------------------------------


    POTLOK:  cpu time      0.2777: real time      0.2781
    SETDIJ:  cpu time      0.0983: real time      0.0983
    TRIAL :  cpu time      0.5008: real time      0.5008
    CORREC:  cpu time      0.6794: real time      0.6794
    CHARGE:  cpu time      0.0968: real time      0.0968
    --------------------------------------------
      LOOP:  cpu time      1.6571: real time      1.6667

 eigenvalue-minimisations  :     0
 total energy-change (2. order) :-0.1067561E-01  (-0.4372280E-02)
 number of electron     447.9999222 magnetization 
 augmentation part      154.4989319 magnetization 

 DIPCOR: dipole corrections for dipol
 direction  3 min pos     1,
 dipolmoment           0.000000      0.000000      0.000023 electrons x Angstroem
 Tr[quadrupol]     -5998.366383

 energy correction for charged system         0.000000 eV
 dipol+quadrupol energy correction           -0.000000 eV
 added-field ion interaction         -0.000000 eV  (added to PSCEN)


 Free energy of the ion-electron system (eV)
  ---------------------------------------------------
  alpha Z        PSCENC =       875.35512513
  Ewald energy   TEWEN  =    141443.21405107
  -Hartree energ DENC   =   -178563.96738722
  -exchange      EXHF   =         0.00000000
  -V(xc)+E(xc)   XCENC  =      1786.55088339
  PAW double counting   =     34650.79453372   -38438.81958090
  entropy T*S    EENTRO =        -0.00000000
  eigenvalues    EBANDS =     -9801.77344741
  atomic energy  EATOM  =     47783.87840219
  ---------------------------------------------------
  free energy    TOTEN  =      -264.76742004 eV

  energy without entropy =     -264.76742004  energy(sigma->0) =     -264.76742004


--------------------------------------------------------------------------------------------------------




--------------------------------------- Iteration      1(  16)  ---------------------------------------


    POTLOK:  cpu time      0.2527: real time      0.2527
    SETDIJ:  cpu time      0.1329: real time      0.1329
    TRIAL :  cpu time      0.5017: real time      0.5017
    CORREC:  cpu time      0.6751: real time      0.6751
    CHARGE:  cpu time      0.0966: real time      0.0966
    --------------------------------------------
      LOOP:  cpu time      1.6634: real time      1.6722

 eigenvalue-minimisations  :     0
 total energy-change (2. order) :-0.4369590E-02  (-0.1486266E-02)
 number of electron     447.9999222 magnetization 
 augmentation part      154.4962897 magnetization 

 DIPCOR: dipole corrections for dipol
 direction  3 min pos     1,
 dipolmoment           0.000000      0.000000      0.000031 electrons x Angstroem
 Tr[quadrupol]     -5998.427577

 energy correction for charged system         0.000000 eV
 dipol+quadrupol energy correction           -0.000000 eV
 added-field ion interaction          0.000000 eV  (added to PSCEN)


 Free energy of the ion-electron system (eV)
  ---------------------------------------------------
  alpha Z        PSCENC =       875.35512513
  Ewald energy   TEWEN  =    141443.21405107
  -Hartree energ DENC   =   -178570.40906799
  -exchange      EXHF   =         0.00000000
  -V(xc)+E(xc)   XCENC  =      1786.66622315
  PAW double counting   =     34655.76015071   -38443.31800665
  entropy T*S    EENTRO =        -0.00000000
  eigenvalues    EBANDS =     -9795.91866723
  atomic energy  EATOM  =     47783.87840219
  ---------------------------------------------------
  free energy    TOTEN  =      -264.77178963 eV

  energy without entropy =     -264.77178963  energy(sigma->0) =     -264.77178963


--------------------------------------------------------------------------------------------------------




--------------------------------------- Iteration      1(  17)  ---------------------------------------


    POTLOK:  cpu time      0.2462: real time      0.2462
    SETDIJ:  cpu time      0.1462: real time      0.1462
    TRIAL :  cpu time      0.5008: real time      0.5008
    CORREC:  cpu time      0.6836: real time      0.6836
    CHARGE:  cpu time      0.0966: real time      0.0967
    --------------------------------------------
      LOOP:  cpu time      1.6861: real time      1.6864

 eigenvalue-minimisations  :     0
 total energy-change (2. order) :-0.1484380E-02  (-0.5261225E-03)
 number of electron     447.9999222 magnetization 
 augmentation part      154.4955955 magnetization 

 DIPCOR: dipole corrections for dipol
 direction  3 min pos     1,
 dipolmoment           0.000000      0.000000      0.000008 electrons x Angstroem
 Tr[quadrupol]     -5998.425551

 energy correction for charged system         0.000000 eV
 dipol+quadrupol energy correction           -0.000000 eV
 added-field ion interaction          0.000000 eV  (added to PSCEN)


 Free energy of the ion-electron system (eV)
  ---------------------------------------------------
  alpha Z        PSCENC =       875.35512513
  Ewald energy   TEWEN  =    141443.21405107
  -Hartree energ DENC   =   -178571.74421669
  -exchange      EXHF   =         0.00000000
  -V(xc)+E(xc)   XCENC  =      1786.68369796
  PAW double counting   =     34657.95456975   -38445.65230226
  entropy T*S    EENTRO =        -0.00000000
  eigenvalues    EBANDS =     -9794.46260115
  atomic energy  EATOM  =     47783.87840219
  ---------------------------------------------------
  free energy    TOTEN  =      -264.77327401 eV

  energy without entropy =     -264.77327401  energy(sigma->0) =     -264.77327401


--------------------------------------------------------------------------------------------------------




--------------------------------------- Iteration      1(  18)  ---------------------------------------


    POTLOK:  cpu time      0.2620: real time      0.2620
    SETDIJ:  cpu time      0.1091: real time      0.1091
    TRIAL :  cpu time      0.5009: real time      0.5009
    CORREC:  cpu time      0.6723: real time      0.6723
    CHARGE:  cpu time      0.0971: real time      0.0971
    --------------------------------------------
      LOOP:  cpu time      1.6455: real time      1.6551

 eigenvalue-minimisations  :     0
 total energy-change (2. order) :-0.5250462E-03  (-0.1792779E-03)
 number of electron     447.9999222 magnetization 
 augmentation part      154.4960238 magnetization 

 DIPCOR: dipole corrections for dipol
 direction  3 min pos     1,
 dipolmoment           0.000000      0.000000      0.000000 electrons x Angstroem
 Tr[quadrupol]     -5998.413798

 energy correction for charged system         0.000000 eV
 dipol+quadrupol energy correction           -0.000000 eV
 added-field ion interaction         -0.000000 eV  (added to PSCEN)


 Free energy of the ion-electron system (eV)
  ---------------------------------------------------
  alpha Z        PSCENC =       875.35512513
  Ewald energy   TEWEN  =    141443.21405107
  -Hartree energ DENC   =   -178571.39703538
  -exchange      EXHF   =         0.00000000
  -V(xc)+E(xc)   XCENC  =      1786.68022843
  PAW double counting   =     34659.36549552   -38447.14545460
  entropy T*S    EENTRO =        -0.00000000
  eigenvalues    EBANDS =     -9794.72461142
  atomic energy  EATOM  =     47783.87840219
  ---------------------------------------------------
  free energy    TOTEN  =      -264.77379906 eV

  energy without entropy =     -264.77379906  energy(sigma->0) =     -264.77379906


--------------------------------------------------------------------------------------------------------




--------------------------------------- Iteration      1(  19)  ---------------------------------------


    POTLOK:  cpu time      0.2652: real time      0.2652
    SETDIJ:  cpu time      0.1044: real time      0.1044
    TRIAL :  cpu time      0.5002: real time      0.5002
    CORREC:  cpu time      0.6708: real time      0.6708
    CHARGE:  cpu time      0.0976: real time      0.0976
    --------------------------------------------
      LOOP:  cpu time      1.6513: real time      1.6517

 eigenvalue-minimisations  :     0
 total energy-change (2. order) :-0.1791476E-03  (-0.6504725E-04)
 number of electron     447.9999222 magnetization 
 augmentation part      154.4957121 magnetization 

 DIPCOR: dipole corrections for dipol
 direction  3 min pos     1,
 dipolmoment           0.000000      0.000000      0.000003 electrons x Angstroem
 Tr[quadrupol]     -5998.397096

 energy correction for charged system         0.000000 eV
 dipol+quadrupol energy correction           -0.000000 eV
 added-field ion interaction          0.000000 eV  (added to PSCEN)


 Free energy of the ion-electron system (eV)
  ---------------------------------------------------
  alpha Z        PSCENC =       875.35512513
  Ewald energy   TEWEN  =    141443.21405107
  -Hartree energ DENC   =   -178571.19240465
  -exchange      EXHF   =         0.00000000
  -V(xc)+E(xc)   XCENC  =      1786.69472771
  PAW double counting   =     34660.29552840   -38448.01589730
  entropy T*S    EENTRO =        -0.00000000
  eigenvalues    EBANDS =     -9795.00351075
  atomic energy  EATOM  =     47783.87840219
  ---------------------------------------------------
  free energy    TOTEN  =      -264.77397821 eV

  energy without entropy =     -264.77397821  energy(sigma->0) =     -264.77397821


--------------------------------------------------------------------------------------------------------




--------------------------------------- Iteration      1(  20)  ---------------------------------------


    POTLOK:  cpu time      0.2561: real time      0.2561
    SETDIJ:  cpu time      0.1332: real time      0.1332
    TRIAL :  cpu time      0.5010: real time      0.5010
    CORREC:  cpu time      0.6992: real time      0.6992
    CHARGE:  cpu time      0.0970: real time      0.0970
    --------------------------------------------
      LOOP:  cpu time      1.6902: real time      1.7000

 eigenvalue-minimisations  :     0
 total energy-change (2. order) :-0.6495948E-04  (-0.2044532E-04)
 number of electron     447.9999222 magnetization 
 augmentation part      154.4954097 magnetization 

 DIPCOR: dipole corrections for dipol
 direction  3 min pos     1,
 dipolmoment           0.000000      0.000000      0.000001 electrons x Angstroem
 Tr[quadrupol]     -5998.383602

 energy correction for charged system         0.000000 eV
 dipol+quadrupol energy correction           -0.000000 eV
 added-field ion interaction          0.000000 eV  (added to PSCEN)


 Free energy of the ion-electron system (eV)
  ---------------------------------------------------
  alpha Z        PSCENC =       875.35512513
  Ewald energy   TEWEN  =    141443.21405107
  -Hartree energ DENC   =   -178570.47985198
  -exchange      EXHF   =         0.00000000
  -V(xc)+E(xc)   XCENC  =      1786.69064848
  PAW double counting   =     34659.97783757   -38447.66685803
  entropy T*S    EENTRO =        -0.00000000
  eigenvalues    EBANDS =     -9795.74339759
  atomic energy  EATOM  =     47783.87840219
  ---------------------------------------------------
  free energy    TOTEN  =      -264.77404317 eV

  energy without entropy =     -264.77404317  energy(sigma->0) =     -264.77404317


--------------------------------------------------------------------------------------------------------




--------------------------------------- Iteration      1(  21)  ---------------------------------------


    POTLOK:  cpu time      0.2660: real time      0.2663
    SETDIJ:  cpu time      0.1097: real time      0.1097
    TRIAL :  cpu time      0.5008: real time      0.5008
    CORREC:  cpu time      0.6795: real time      0.6795
    CHARGE:  cpu time      0.0970: real time      0.0970
    --------------------------------------------
      LOOP:  cpu time      1.6664: real time      1.6672

 eigenvalue-minimisations  :     0
 total energy-change (2. order) :-0.2038382E-04  (-0.6237756E-05)
 number of electron     447.9999222 magnetization 
 augmentation part      154.4956343 magnetization 

 DIPCOR: dipole corrections for dipol
 direction  3 min pos     1,
 dipolmoment           0.000000      0.000000     -0.000001 electrons x Angstroem
 Tr[quadrupol]     -5998.380672

 energy correction for charged system         0.000000 eV
 dipol+quadrupol energy correction           -0.000000 eV
 added-field ion interaction          0.000000 eV  (added to PSCEN)


 Free energy of the ion-electron system (eV)
  ---------------------------------------------------
  alpha Z        PSCENC =       875.35512513
  Ewald energy   TEWEN  =    141443.21405107
  -Hartree energ DENC   =   -178570.00264551
  -exchange      EXHF   =         0.00000000
  -V(xc)+E(xc)   XCENC  =      1786.68116245
  PAW double counting   =     34659.37214324   -38447.06974099
  entropy T*S    EENTRO =        -0.00000000
  eigenvalues    EBANDS =     -9796.20256112
  atomic energy  EATOM  =     47783.87840219
[...]
    315       9.0914      0.00000
    316       9.0915      0.00000
    317       9.9201      0.00000
    318       9.9326      0.00000
    319       9.9387      0.00000
    320       9.9427      0.00000


--------------------------------------------------------------------------------------------------------


 soft charge-density along one line, spin component           1
         0         1         2         3         4         5         6         7         8         9
 total charge-density along one line

 pseudopotential strength for first ion, spin component:           1
-51.990   0.000   0.000   7.266  -0.000  -0.000   0.000  -0.000
  0.000 -52.046   0.000  -0.000   7.291  -0.000  -0.031   0.079
  0.000   0.000 -51.990  -0.000  -0.000   7.266  -0.000   0.000
  7.266  -0.000  -0.000   4.190   0.000   0.000   0.000  -0.000
 -0.000   7.291  -0.000   0.000   4.194   0.000  -0.003   0.006
 -0.000  -0.000   7.266   0.000   0.000   4.190   0.000   0.000
  0.000  -0.031  -0.000   0.000  -0.003   0.000   2.993 -11.053
 -0.000   0.079   0.000  -0.000   0.006   0.000 -11.053  46.104
  0.000  -0.000  -0.000  -0.000  -0.000   0.000  -0.000   0.000
  0.009  -0.000  -0.000  -0.007   0.000  -0.000  -0.000   0.000
  0.000   0.010  -0.000  -0.000  -0.015   0.000   0.008  -0.016
 -0.000   0.000   0.009  -0.000  -0.000  -0.007  -0.000   0.000
  0.000   0.000   0.000  -0.000   0.000  -0.000  -0.000   0.000
 total augmentation occupancy for first ion, spin component:           1
  2.002  -0.000  -0.000  -0.004   0.000  -0.000   0.000  -0.000  -0.000  -0.008  -0.000  -0.000  -0.000
 -0.000   2.002   0.000   0.000   0.002  -0.000   0.001   0.004  -0.000   0.000  -0.014   0.000  -0.000
 -0.000   0.000   2.002  -0.000  -0.000  -0.004  -0.000  -0.000  -0.000  -0.000   0.000  -0.008   0.000
 -0.004   0.000  -0.000   0.078  -0.000  -0.000  -0.000   0.000   0.000   0.001   0.000   0.000   0.000
  0.000   0.002  -0.000  -0.000   0.048  -0.000   0.039   0.001  -0.000   0.000   0.026   0.000   0.000
 -0.000  -0.000  -0.004  -0.000  -0.000   0.078  -0.000   0.000  -0.000  -0.000  -0.000   0.001   0.000
  0.000   0.001  -0.000  -0.000   0.039  -0.000   0.833   0.013   0.000   0.000  -0.039  -0.000  -0.000
 -0.000   0.004  -0.000   0.000   0.001   0.000   0.013   0.000   0.000  -0.000  -0.001   0.000  -0.000
 -0.000  -0.000  -0.000   0.000  -0.000  -0.000   0.000   0.000   0.013   0.000   0.000  -0.000   0.000
 -0.008   0.000  -0.000   0.001   0.000  -0.000   0.000  -0.000   0.000   0.011  -0.000   0.000   0.000
 -0.000  -0.014   0.000   0.000   0.026  -0.000  -0.039  -0.001   0.000  -0.000   0.032  -0.000  -0.000
 -0.000   0.000  -0.008   0.000   0.000   0.001  -0.000   0.000  -0.000   0.000  -0.000   0.011   0.000
 -0.000  -0.000   0.000   0.000   0.000   0.000  -0.000  -0.000   0.000   0.000  -0.000   0.000   0.053


------------------------ aborting loop because EDIFF is reached ----------------------------------------


    FORLOC:  cpu time      0.0021: real time      0.0021
    FORNL :  cpu time      0.2845: real time      0.2846
    STRESS:  cpu time      0.8750: real time      0.8751
    FORCOR:  cpu time      0.2546: real time      0.2546
    OFIELD:  cpu time      0.0000: real time      0.0000

  FORCE on cell =-STRESS in cart. coord.  units (eV):
  Direction    XX          YY          ZZ          XY          YZ          ZX
  --------------------------------------------------------------------------------------
  Alpha Z   875.35513   875.35513   875.35513
  Ewald  161541.80120161541.80120************     0.00000    -0.00000    -0.00000
  Hartree171572.21391171572.21391************    -0.00000    -0.00000    -0.00000
  E(xc)   -2455.98179 -2455.98179 -2456.07649     0.00000    -0.00000     0.00000
  Local  ************************343382.56695     0.00000     0.00000    -0.00000
  n-local -2831.52430 -2832.38314 -2851.07905     0.00000     0.00000     0.00000
  augment  1051.67787  1051.67787  1042.25961     0.00000    -0.00000    -0.00000
  Kinetic  7303.10323  7305.79096  7343.24159    -0.00000    -0.00000     0.00000
  Fock        0.00000     0.00000     0.00000     0.00000     0.00000     0.00000
  -------------------------------------------------------------------------------------
  Total     -29.92823   -29.92823    -2.41078     0.00000     0.00000     0.00000
  in kB     -31.55346   -31.55346    -2.54169     0.00000     0.00000     0.00000
  external pressure =      -21.88 kB  Pullay stress =        0.00 kB


 VOLUME and BASIS-vectors are now :
 -----------------------------------------------------------------------------
  energy-cutoff  :      600.00
  volume of cell :     1519.65
      direct lattice vectors                 reciprocal lattice vectors
     8.440582262  0.000000000  0.000000000     0.118475239  0.000000000  0.000000000
     0.000000000  8.440582262  0.000000000     0.000000000  0.118475239  0.000000000
     0.000000000  0.000000000 21.330436697     0.000000000  0.000000000  0.046881366

  length of vectors
     8.440582262  8.440582262 21.330436697     0.118475239  0.118475239  0.046881366


 FORCES acting on ions:
    Electron-Ion                     Ewald-Force                    Non-Local-Force
 -----------------------------------------------------------------------------------------------
   0.294E-12 -.428E-12 0.207E+04   -.844E-13 0.331E-13 -.206E+04   0.102E-24 -.517E-25 -.679E+01
   0.862E-12 -.163E-11 0.207E+04   0.954E-13 0.107E-13 -.206E+04   0.207E-24 0.569E-24 -.679E+01
   0.353E-12 0.111E-12 0.685E+03   0.000E+00 0.711E-14 -.685E+03   0.000E+00 0.827E-24 0.442E+00
   0.816E-12 -.162E-12 0.685E+03   -.149E-13 -.708E-13 -.685E+03   0.414E-23 -.207E-23 0.442E+00
   0.343E-12 -.165E-12 -.690E+03   0.134E-10 0.134E-10 0.690E+03   0.463E-22 0.331E-22 -.269E+00
   0.801E-12 -.111E-11 -.690E+03   -.134E-10 -.134E-10 0.690E+03   0.199E-22 0.000E+00 -.269E+00
   0.299E-12 0.404E-12 -.206E+04   0.119E-11 -.107E-11 0.205E+04   0.331E-23 0.290E-23 0.597E+01
   0.911E-12 -.209E-12 -.206E+04   -.104E-11 0.111E-11 0.205E+04   -.620E-24 -.620E-23 0.597E+01
   0.301E-12 -.673E-13 0.207E+04   0.174E-11 -.187E-11 -.206E+04   0.207E-24 0.103E-24 -.679E+01
   0.863E-12 0.290E-11 0.207E+04   -.185E-11 0.185E-11 -.206E+04   0.465E-24 -.759E-25 -.679E+01
   0.358E-12 0.121E-11 0.685E+03   -.293E-11 -.165E-10 -.685E+03   -.414E-24 0.165E-23 0.442E+00
   0.801E-12 0.707E-12 0.685E+03   0.290E-11 0.164E-10 -.685E+03   -.248E-23 0.827E-24 0.442E+00
   0.353E-12 0.643E-12 -.690E+03   0.134E-10 0.390E-13 0.690E+03   0.459E-22 0.662E-23 -.269E+00
   0.809E-12 0.293E-11 -.690E+03   -.134E-10 -.480E-13 0.690E+03   0.000E+00 -.331E-23 -.269E+00
   0.305E-12 0.704E-12 -.206E+04   0.246E-11 0.355E-13 0.205E+04   0.248E-23 -.579E-23 0.597E+01
   0.894E-12 0.123E-11 -.206E+04   -.234E-11 -.178E-13 0.205E+04   0.827E-24 0.248E-23 0.597E+01
   0.122E-11 -.438E-12 0.207E+04   -.363E-11 -.239E-13 -.206E+04   -.103E-24 -.103E-24 -.679E+01
   -.393E-13 0.438E-13 0.207E+04   0.358E-11 -.346E-13 -.206E+04   -.207E-24 -.103E-24 -.679E+01
   0.120E-11 -.106E-11 0.685E+03   0.194E-10 -.782E-13 -.685E+03   -.931E-24 0.000E+00 0.442E+00
   -.520E-13 -.155E-12 0.685E+03   -.195E-10 -.922E-13 -.685E+03   0.827E-24 0.207E-24 0.442E+00
   0.120E-11 -.182E-12 -.690E+03   0.657E-13 0.134E-10 0.690E+03   0.000E+00 -.215E-22 -.269E+00
   -.440E-13 0.128E-12 -.690E+03   -.932E-13 -.134E-10 0.690E+03   0.331E-22 0.662E-23 -.269E+00
   0.123E-11 0.284E-11 -.206E+04   -.121E-11 -.109E-11 0.205E+04   -.807E-23 -.248E-23 0.597E+01
   -.173E-13 -.202E-12 -.206E+04   0.131E-11 0.106E-11 0.205E+04   0.662E-23 0.110E-22 0.597E+01
   0.121E-11 0.512E-12 0.207E+04   -.196E-11 -.194E-11 -.206E+04   0.362E-24 -.207E-24 -.679E+01
   -.459E-13 0.798E-12 0.207E+04   0.182E-11 0.182E-11 -.206E+04   -.103E-24 0.000E+00 -.679E+01
   0.120E-11 0.403E-11 0.685E+03   0.164E-10 -.165E-10 -.685E+03   -.517E-24 -.124E-23 0.442E+00
   -.417E-13 0.576E-12 0.685E+03   -.164E-10 0.163E-10 -.685E+03   0.269E-23 0.145E-23 0.442E+00
   0.120E-11 -.175E-11 -.690E+03   -.568E-13 0.283E-13 0.690E+03   0.331E-22 -.662E-23 -.269E+00
   -.392E-13 0.724E-12 -.690E+03   -.574E-13 -.853E-13 0.690E+03   0.662E-23 0.149E-22 -.269E+00
   0.123E-11 0.363E-11 -.206E+04   0.497E-13 -.213E-13 0.205E+04   -.165E-23 0.827E-23 0.597E+01
   -.400E-14 0.832E-12 -.206E+04   0.699E-14 -.678E-13 0.205E+04   0.827E-24 -.165E-23 0.597E+01
   0.102E-12 -.140E-12 0.513E+03   0.631E-13 0.442E-13 -.513E+03   0.000E+00 -.103E-23 -.789E-01
   0.306E-12 -.338E-11 0.513E+03   0.105E-12 0.515E-13 -.513E+03   0.000E+00 0.414E-24 -.789E-01
   0.817E-13 0.337E-13 0.155E+04   0.329E-13 0.169E-13 -.156E+04   -.620E-24 -.124E-23 0.360E+01
   0.350E-12 -.236E-12 0.155E+04   0.344E-13 0.408E-13 -.156E+04   0.414E-24 -.414E-24 0.360E+01
   0.647E-13 0.471E-13 -.156E+04   -.213E-13 -.941E-14 0.157E+04   0.248E-23 0.414E-24 -.493E+01
   0.367E-12 -.211E-11 -.156E+04   -.277E-13 0.364E-13 0.157E+04   0.165E-23 0.372E-23 -.493E+01
   0.112E-12 0.687E-12 -.512E+03   0.639E-13 0.213E-13 0.512E+03   0.000E+00 0.476E-23 0.258E+00
   0.319E-12 0.926E-13 -.512E+03   0.279E-13 0.428E-13 0.512E+03   -.112E-22 -.662E-23 0.258E+00
   0.119E-12 0.436E-12 0.513E+03   0.568E-13 0.106E-13 -.513E+03   0.000E+00 0.000E+00 -.789E-01
   0.311E-12 0.241E-11 0.513E+03   0.565E-13 0.462E-13 -.513E+03   -.569E-24 0.000E+00 -.789E-01
   0.820E-13 0.653E-12 0.155E+04   0.799E-13 0.684E-13 -.156E+04   -.827E-24 0.124E-23 0.360E+01
   0.353E-12 0.202E-12 0.155E+04   0.218E-13 0.179E-14 -.156E+04   -.207E-24 -.124E-23 0.360E+01
   0.665E-13 0.660E-12 -.156E+04   0.142E-13 -.549E-14 0.157E+04   -.414E-24 0.124E-23 -.493E+01
   0.357E-12 0.100E-11 -.156E+04   -.119E-12 -.711E-14 0.157E+04   0.000E+00 -.235E-23 -.493E+01
   0.118E-12 0.835E-12 -.512E+03   0.142E-13 0.284E-13 0.512E+03   -.414E-23 -.496E-23 0.258E+00
   0.288E-12 0.112E-11 -.512E+03   0.637E-15 0.213E-13 0.512E+03   -.744E-23 -.134E-23 0.258E+00
   0.506E-12 -.155E-12 0.513E+03   0.453E-13 0.780E-13 -.513E+03   0.827E-24 0.414E-24 -.789E-01
   -.513E-13 -.539E-13 0.513E+03   0.809E-14 0.213E-13 -.513E+03   -.414E-24 0.000E+00 -.789E-01
   0.500E-12 -.135E-12 0.155E+04   0.742E-13 0.120E-13 -.156E+04   0.414E-24 -.414E-24 0.360E+01
   -.325E-13 -.236E-12 0.155E+04   0.553E-13 0.311E-13 -.156E+04   -.414E-24 0.000E+00 0.360E+01
   0.459E-12 0.606E-13 -.156E+04   -.275E-13 -.479E-15 0.157E+04   -.186E-23 0.000E+00 -.493E+01
   -.407E-13 0.411E-12 -.156E+04   -.800E-13 0.426E-13 0.157E+04   0.000E+00 0.827E-24 -.493E+01
   0.509E-12 -.124E-11 -.512E+03   -.213E-13 -.711E-14 0.512E+03   -.496E-23 -.496E-23 0.258E+00
   -.579E-13 0.673E-13 -.512E+03   -.498E-13 0.152E-13 0.512E+03   -.331E-23 0.248E-23 0.258E+00
   0.494E-12 -.211E-11 0.513E+03   0.711E-14 -.213E-13 -.513E+03   0.507E-23 -.165E-23 -.789E-01
   -.543E-13 0.296E-12 0.513E+03   0.459E-15 0.497E-13 -.513E+03   -.248E-23 0.160E-23 -.789E-01
   0.500E-12 -.141E-12 0.155E+04   0.395E-13 0.586E-13 -.156E+04   -.827E-24 0.620E-24 0.360E+01
   -.369E-13 0.808E-13 0.155E+04   0.932E-13 0.120E-13 -.156E+04   -.620E-24 0.207E-24 0.360E+01
   0.465E-12 0.108E-11 -.156E+04   -.924E-13 -.164E-15 0.157E+04   0.000E+00 0.165E-23 -.493E+01
   -.373E-13 0.916E-12 -.156E+04   0.355E-13 0.000E+00 0.157E+04   0.414E-24 -.827E-24 -.493E+01
   0.494E-12 0.347E-11 -.512E+03   -.639E-13 0.284E-13 0.512E+03   -.496E-23 0.217E-23 0.258E+00
   -.363E-13 0.175E-12 -.512E+03   -.214E-13 -.142E-13 0.512E+03   -.207E-23 -.124E-23 0.258E+00
 -----------------------------------------------------------------------------------------------
   0.263E-10 0.228E-10 0.144E+02   0.247E-13 0.117E-13 -.205E-11   0.157E-21 0.335E-22 -.144E+02


 POSITION                                       TOTAL-FORCE (eV/Angst)
 -----------------------------------------------------------------------------------
      2.11015      0.00000      7.50000        -0.000000     -0.000000      0.320121
      4.22029      2.11015      7.50000        -0.000000      0.000000      0.320121
      2.11015      2.11015      9.61015        -0.000000     -0.000000      0.032589
      4.22029      0.00000      9.61015        -0.000000     -0.000000      0.032589
      2.11015      0.00000     11.73102        -0.000000     -0.000000      0.002965
      4.22029      2.11015     11.73102         0.000000      0.000000      0.002965
      2.11015      2.11015     13.82955        -0.000000      0.000000      0.001847
      4.22029      0.00000     13.82955         0.000000      0.000000      0.001847
      2.11015      4.22029      7.50000         0.000000      0.000000      0.320121
      4.22029      6.33044      7.50000         0.000000     -0.000000      0.320121
      2.11015      6.33044      9.61015        -0.000000      0.000000      0.032589
      4.22029      4.22029      9.61015        -0.000000     -0.000000      0.032589
      2.11015      4.22029     11.73102        -0.000000      0.000000      0.002965
      4.22029      6.33044     11.73102         0.000000      0.000000      0.002965
      2.11015      6.33044     13.82955        -0.000000      0.000000      0.001847
      4.22029      4.22029     13.82955        -0.000000     -0.000000      0.001847
      6.33044      0.00000      7.50000        -0.000000      0.000000      0.320121
      0.00000      2.11015      7.50000        -0.000000      0.000000      0.320121
      6.33044      2.11015      9.61015         0.000000      0.000000      0.032589
      0.00000      0.00000      9.61015         0.000000     -0.000000      0.032589
      6.33044      0.00000     11.73102         0.000000     -0.000000      0.002965
     -0.00000      2.11015     11.73102         0.000000      0.000000      0.002965
      6.33044      2.11015     13.82955        -0.000000     -0.000000      0.001847
      0.00000     -0.00000     13.82955        -0.000000      0.000000      0.001847
      6.33044      4.22029      7.50000        -0.000000     -0.000000      0.320121
      0.00000      6.33044      7.50000        -0.000000     -0.000000      0.320121
      6.33044      6.33044      9.61015         0.000000     -0.000000      0.032589
      0.00000      4.22029      9.61015         0.000000      0.000000      0.032589
      6.33044      4.22029     11.73102         0.000000      0.000000      0.002965
     -0.00000      6.33044     11.73102         0.000000      0.000000      0.002965
      6.33044      6.33044     13.82955        -0.000000      0.000000      0.001847
      0.00000      4.22029     13.82955        -0.000000     -0.000000      0.001847
      2.11015      0.00000      9.61015        -0.000000     -0.000000      0.054190
      4.22029      2.11015      9.61015        -0.000000     -0.000000      0.054190
      2.11015      2.11015      7.50000        -0.000000     -0.000000     -0.402646
      4.22029      0.00000      7.50000        -0.000000      0.000000     -0.402646
      2.11015     -0.00000     13.86857        -0.000000     -0.000000     -0.001753
      4.22029      2.11015     13.86857        -0.000000      0.000000     -0.001753
      2.11015      2.11015     11.72550        -0.000000     -0.000000     -0.007312
      4.22029     -0.00000     11.72550        -0.000000      0.000000     -0.007312
      2.11015      4.22029      9.61015         0.000000     -0.000000      0.054190
      4.22029      6.33044      9.61015        -0.000000      0.000000      0.054190
      2.11015      6.33044      7.50000        -0.000000     -0.000000     -0.402646
      4.22029      4.22029      7.50000        -0.000000      0.000000     -0.402646
      2.11015      4.22029     13.86857        -0.000000     -0.000000     -0.001753
      4.22029      6.33044     13.86857        -0.000000     -0.000000     -0.001753
      2.11015      6.33044     11.72550        -0.000000      0.000000     -0.007312
      4.22029      4.22029     11.72550        -0.000000      0.000000     -0.007312
      6.33044      0.00000      9.61015        -0.000000     -0.000000      0.054190
      0.00000      2.11015      9.61015        -0.000000      0.000000      0.054190
      6.33044      2.11015      7.50000        -0.000000      0.000000     -0.402646
      0.00000      0.00000      7.50000        -0.000000      0.000000     -0.402646
      6.33044     -0.00000     13.86857        -0.000000     -0.000000     -0.001753
      0.00000      2.11015     13.86857         0.000000      0.000000     -0.001753
      6.33044      2.11015     11.72550        -0.000000      0.000000     -0.007312
      0.00000      0.00000     11.72550         0.000000      0.000000     -0.007312
      6.33044      4.22029      9.61015        -0.000000     -0.000000      0.054190
      0.00000      6.33044      9.61015        -0.000000      0.000000      0.054190
      6.33044      6.33044      7.50000        -0.000000     -0.000000     -0.402646
      0.00000      4.22029      7.50000        -0.000000      0.000000     -0.402646
      6.33044      4.22029     13.86857        -0.000000      0.000000     -0.001753
      0.00000      6.33044     13.86857        -0.000000     -0.000000     -0.001753
      6.33044      6.33044     11.72550        -0.000000     -0.000000     -0.007312
      0.00000      4.22029     11.72550        -0.000000     -0.000000     -0.007312
 -----------------------------------------------------------------------------------
    total drift:                                0.000000      0.000000     -0.009632


--------------------------------------------------------------------------------------------------------



  FREE ENERGIE OF THE ION-ELECTRON SYSTEM (eV)
  ---------------------------------------------------
  free  energy   TOTEN  =      -264.83545559 eV

  energy  without entropy=     -264.83545559  energy(sigma->0) =     -264.83545559

 d Force = 0.7801917E-04[-0.919E-04, 0.248E-03]  d Energy = 0.8116510E-04-0.315E-05
 d Force = 0.1128931E+02[ 0.113E+02, 0.113E+02]  d Ewald  = 0.1128931E+02-0.305E-06


--------------------------------------------------------------------------------------------------------


    POTLOK:  cpu time      0.3879: real time      0.3879


--------------------------------------------------------------------------------------------------------


 Conjugate gradient step on ions:
 trial-energy change:   -0.000081  1 .order   -0.000078   -0.000248    0.000092
  (g-gl).g = 0.161E-03      g.g   = 0.183E-03  gl.gl    = 0.603E-03
 g(Force)  = 0.183E-03   g(Stress)= 0.000E+00 ortho     =-0.392E-05
 gamma     =   0.26687
 trial     =   1.36334
 opt step  =   0.99458  (harmonic =   0.99458) maximal distance =0.00116630
 next E    =  -264.835465   (d E  =  -0.00009)


--------------------------------------------------------------------------------------------------------


  
 reached required accuracy - stopping structural energy minimisation
     LOOP+:  cpu time     20.4982: real time     20.5729
    4ORBIT:  cpu time      0.0000: real time      0.0000

 total amount of memory used by VASP MPI-rank0    69719. kBytes
=======================================================================

   base      :      30000. kBytes
   nonl-proj :      20988. kBytes
   fftplans  :       3857. kBytes
   grid      :       5439. kBytes
   one-center:        129. kBytes
   wavefun   :       9306. kBytes

  
  
 General timing and accounting informations for this job:
 ========================================================
  
                  Total CPU time used (sec):      305.107
                            User time (sec):      302.650
                          System time (sec):        2.456
                         Elapsed time (sec):      309.351
  
                   Maximum memory used (kb):      261828.
                   Average memory used (kb):          N/A
  
                          Minor page faults:        32543
                          Major page faults:           51
                 Voluntary context switches:        12261
