 vasp.6.3.0 20Jan22 (build Apr  1 2022 16:44:48) complex                         
 executed on        HPECrayEX_GCC date 2022.12.19  14:32:01
 running  512 mpi-ranks, with    1 threads/rank
 distrk:  each k-point on  512 cores,    1 groups
 distr:  one band on NCORE=   8 cores,   64 groups


--------------------------------------------------------------------------------------------------------


 INCAR:
   SYSTEM = MgO-rocksalt
   ISMEAR = 0
   SIGMA = 0.05
   EDIFF = 1E-7
   ALGO = ALL
   ISTART = 0
   IBRION = 5
   POTIM = 0.035
   NFREE = 2
   ISYM = 0
   DIPOL = 0.5 0.5 0.5
   IDIPOL = 3
   LDIPOL = .TRUE.
   LHFCALC = .TRUE.
   GGA = PE
   IVDW = 13
   VDW_S8 = 1.2007
   VDW_A1 = 0.4009
   VDW_A2 = 5.0293
   ENCUT = 600
   PREC = Accurate
   LASPH = .TRUE.
   LREAL = .FALSE.
   ISPIN = 1
   NELM = 200
   NELMIN = 8
   NCORE = 8
   KPAR = 1
   LWAVE = .FALSE.
   LCHARG = .FALSE.

 POTCAR:    PAW_PBE C 08Apr2002                   
 POTCAR:    PAW_PBE O 08Apr2002                   
 POTCAR:    PAW_PBE Mg_pv 13Apr2007               
 POTCAR:    PAW_PBE O 08Apr2002                   
 POTCAR:    PAW_PBE C 08Apr2002                   
   SHA256 =  253f7b50bb8d59471dbedb8285d89021f4a42ed1a2c5d38a03a736e69125dd95 C/POTCAR              
   COPYR  = (c) Copyright 08Apr2002 Georg Kresse                                                    
   COPYR  = This file is part of the software VASP. Any use, copying, and all other rights are regul
   COPYR  = If you do not have a valid VASP license, you may not use, copy or distribute this file. 
   VRHFIN =C: s2p2                                                                                  
   LEXCH  = PE                                                                                      
   EATOM  =   147.1560 eV,   10.8157 Ry                                                             
                                                                                                    
   TITEL  = PAW_PBE C 08Apr2002                                                                     
   LULTRA =        F    use ultrasoft PP ?                                                          
   IUNSCR =        1    unscreen: 0-lin 1-nonlin 2-no                                               
   RPACOR =    1.200    partial core radius                                                         
   POMASS =   12.011; ZVAL   =    4.000    mass and valenz                                          
   RCORE  =    1.500    outmost cutoff radius                                                       
   RWIGS  =    1.630; RWIGS  =    0.863    wigner-seitz radius (au A)                               
   ENMAX  =  400.000; ENMIN  =  300.000 eV                                                          
   ICORE  =        2    local potential                                                             
   LCOR   =        T    correct aug charges                                                         
   LPAW   =        T    paw PP                                                                      
   EAUG   =  644.873                                                                                
   DEXC   =    0.000                                                                                
   RMAX   =    1.529    core radius for proj-oper                                                   
   RAUG   =    1.300    factor for augmentation sphere                                              
   RDEP   =    1.501    radius for radial grids                                                     
   RDEPT  =    1.300    core radius for aug-charge                                                  
                                                                                                    
   Atomic configuration                                                                             
    4 entries                                                                                       
     n  l   j            E        occ.                                                              
     1  0  0.50      -273.3789   2.0000                                                             
     2  0  0.50       -13.7508   2.0000                                                             
     2  1  0.50        -5.2854   2.0000                                                             
     3  2  1.50        -5.4423   0.0000                                                             
   Description                                                                                      
     l       E           TYP  RCUT    TYP  RCUT                                                     
     0    -13.7508458     23  1.200                                                                 
     0     -8.2022199     23  1.200                                                                 
     1     -5.2854383     23  1.500                                                                 
     1     34.0145650     23  1.500                                                                 
     2     -5.4423304      7  1.500                                                                 
  local pseudopotential read in
  partial core-charges read in
  partial kinetic energy density read in
  atomic valenz-charges read in
  non local Contribution for L=           0  read in
    real space projection operators read in
  non local Contribution for L=           0  read in
    real space projection operators read in
  non local Contribution for L=           1  read in
    real space projection operators read in
  non local Contribution for L=           1  read in
    real space projection operators read in
    PAW grid and wavefunctions read in

   number of l-projection  operators is LMAX  =           4
   number of lm-projection operators is LMMAX =           8

 POTCAR:    PAW_PBE O 08Apr2002                   
   SHA256 =  818f92134a0a090dccd8ba1447fa70422a3b330e708bb4f08108d8ae51209ddf O/POTCAR              
   COPYR  = (c) Copyright 08Apr2002 Georg Kresse                                                    
   COPYR  = This file is part of the software VASP. Any use, copying, and all other rights are regul
   COPYR  = If you do not have a valid VASP license, you may not use, copy or distribute this file. 
   VRHFIN =O: s2p4                                                                                  
   LEXCH  = PE                                                                                      
   EATOM  =   432.3788 eV,   31.7789 Ry                                                             
                                                                                                    
   TITEL  = PAW_PBE O 08Apr2002                                                                     
   LULTRA =        F    use ultrasoft PP ?                                                          
   IUNSCR =        1    unscreen: 0-lin 1-nonlin 2-no                                               
   RPACOR =    1.200    partial core radius                                                         
   POMASS =   16.000; ZVAL   =    6.000    mass and valenz                                          
   RCORE  =    1.520    outmost cutoff radius                                                       
   RWIGS  =    1.550; RWIGS  =    0.820    wigner-seitz radius (au A)                               
   ENMAX  =  400.000; ENMIN  =  300.000 eV                                                          
   ICORE  =        2    local potential                                                             
   LCOR   =        T    correct aug charges                                                         
   LPAW   =        T    paw PP                                                                      
   EAUG   =  605.392                                                                                
   DEXC   =    0.000                                                                                
   RMAX   =    1.553    core radius for proj-oper                                                   
   RAUG   =    1.300    factor for augmentation sphere                                              
   RDEP   =    1.550    radius for radial grids                                                     
   RDEPT  =    1.329    core radius for aug-charge                                                  
                                                                                                    
   Atomic configuration                                                                             
    4 entries                                                                                       
     n  l   j            E        occ.                                                              
     1  0  0.50      -514.6923   2.0000                                                             
     2  0  0.50       -23.9615   2.0000                                                             
     2  1  0.50        -9.0305   4.0000                                                             
     3  2  1.50        -9.5241   0.0000                                                             
   Description                                                                                      
     l       E           TYP  RCUT    TYP  RCUT                                                     
     0    -23.9615318     23  1.200                                                                 
     0     -9.5240782     23  1.200                                                                 
     1     -9.0304911     23  1.520                                                                 
     1      8.1634956     23  1.520                                                                 
     2     -9.5240782      7  1.500                                                                 
  local pseudopotential read in
  partial core-charges read in
  partial kinetic energy density read in
  kinetic energy density of atom read in
  atomic valenz-charges read in
  non local Contribution for L=           0  read in
    real space projection operators read in
  non local Contribution for L=           0  read in
    real space projection operators read in
  non local Contribution for L=           1  read in
    real space projection operators read in
  non local Contribution for L=           1  read in
    real space projection operators read in
    PAW grid and wavefunctions read in

   number of l-projection  operators is LMAX  =           4
   number of lm-projection operators is LMMAX =           8

 POTCAR:    PAW_PBE Mg_pv 13Apr2007               
   SHA256 =  f474ac0dd33840b9ae76c01d57fea79fdf77cdfbb07d5ade72c65f83c709b62b Mg_pv/POTCAR          
   COPYR  = (c) Copyright 13Apr2007 Georg Kresse                                                    
   COPYR  = This file is part of the software VASP. Any use, copying, and all other rights are regul
   COPYR  = If you do not have a valid VASP license, you may not use, copy or distribute this file. 
   VRHFIN =Mg: p6s2                                                                                 
   LEXCH  = PE                                                                                      
   EATOM  =  1056.7344 eV,   77.6678 Ry                                                             
                                                                                                    
   TITEL  = PAW_PBE Mg_pv 13Apr2007                                                                 
   LULTRA =        F    use ultrasoft PP ?                                                          
   IUNSCR =        1    unscreen: 0-lin 1-nonlin 2-no                                               
   RPACOR =    1.500    partial core radius                                                         
   POMASS =   24.305; ZVAL   =    8.000    mass and valenz                                          
   RCORE  =    2.000    outmost cutoff radius                                                       
   RWIGS  =    2.000; RWIGS  =    1.058    wigner-seitz radius (au A)                               
   ENMAX  =  403.929; ENMIN  =  302.947 eV                                                          
   RCLOC  =    1.506    cutoff for local pot                                                        
   LCOR   =        T    correct aug charges                                                         
   LPAW   =        T    paw PP                                                                      
   EAUG   =  758.780                                                                                
   DEXC   =    0.000                                                                                
   RMAX   =    2.045    core radius for proj-oper                                                   
   RAUG   =    1.300    factor for augmentation sphere                                              
   RDEP   =    2.025    radius for radial grids                                                     
   RDEPT  =    1.557    core radius for aug-charge                                                  
                                                                                                    
   Atomic configuration                                                                             
    5 entries                                                                                       
     n  l   j            E        occ.                                                              
     1  0  0.50     -1259.6230   2.0000                                                             
     2  0  0.50       -79.8442   2.0000                                                             
     2  1  1.50       -46.6121   6.0000                                                             
     3  0  0.50        -4.7055   2.0000                                                             
     3  2  1.50        -1.3606   0.0000                                                             
   Description                                                                                      
     l       E           TYP  RCUT    TYP  RCUT                                                     
     1    -46.6121073     23  1.600                                                                 
     1      2.7211652     23  1.600                                                                 
     0     -4.7054661     23  2.000                                                                 
     0     61.2262170     23  2.000                                                                 
     2     -1.3605826     23  2.000                                                                 
  local pseudopotential read in
  partial core-charges read in
  partial kinetic energy density read in
  atomic valenz-charges read in
  non local Contribution for L=           1  read in
    real space projection operators read in
  non local Contribution for L=           1  read in
    real space projection operators read in
  non local Contribution for L=           0  read in
    real space projection operators read in
  non local Contribution for L=           0  read in
    real space projection operators read in
  non local Contribution for L=           2  read in
    real space projection operators read in
    PAW grid and wavefunctions read in

   number of l-projection  operators is LMAX  =           5
   number of lm-projection operators is LMMAX =          13

 POTCAR:    PAW_PBE O 08Apr2002                   
   SHA256 =  818f92134a0a090dccd8ba1447fa70422a3b330e708bb4f08108d8ae51209ddf O/POTCAR              
   COPYR  = (c) Copyright 08Apr2002 Georg Kresse                                                    
   COPYR  = This file is part of the software VASP. Any use, copying, and all other rights are regul
   COPYR  = If you do not have a valid VASP license, you may not use, copy or distribute this file. 
   VRHFIN =O: s2p4                                                                                  
   LEXCH  = PE                                                                                      
   EATOM  =   432.3788 eV,   31.7789 Ry                                                             
                                                                                                    
   TITEL  = PAW_PBE O 08Apr2002                                                                     
   LULTRA =        F    use ultrasoft PP ?                                                          
   IUNSCR =        1    unscreen: 0-lin 1-nonlin 2-no                                               
   RPACOR =    1.200    partial core radius                                                         
   POMASS =   16.000; ZVAL   =    6.000    mass and valenz                                          
   RCORE  =    1.520    outmost cutoff radius                                                       
   RWIGS  =    1.550; RWIGS  =    0.820    wigner-seitz radius (au A)                               
   ENMAX  =  400.000; ENMIN  =  300.000 eV                                                          
   ICORE  =        2    local potential                                                             
   LCOR   =        T    correct aug charges                                                         
   LPAW   =        T    paw PP                                                                      
   EAUG   =  605.392                                                                                
   DEXC   =    0.000                                                                                
   RMAX   =    1.553    core radius for proj-oper                                                   
   RAUG   =    1.300    factor for augmentation sphere                                              
   RDEP   =    1.550    radius for radial grids                                                     
   RDEPT  =    1.329    core radius for aug-charge                                                  
                                                                                                    
   Atomic configuration                                                                             
    4 entries                                                                                       
     n  l   j            E        occ.                                                              
     1  0  0.50      -514.6923   2.0000                                                             
     2  0  0.50       -23.9615   2.0000                                                             
     2  1  0.50        -9.0305   4.0000                                                             
     3  2  1.50        -9.5241   0.0000                                                             
   Description                                                                                      
     l       E           TYP  RCUT    TYP  RCUT                                                     
     0    -23.9615318     23  1.200                                                                 
     0     -9.5240782     23  1.200                                                                 
     1     -9.0304911     23  1.520                                                                 
     1      8.1634956     23  1.520                                                                 
     2     -9.5240782      7  1.500                                                                 
  local pseudopotential read in
  partial core-charges read in
  partial kinetic energy density read in
  kinetic energy density of atom read in
  atomic valenz-charges read in
  non local Contribution for L=           0  read in
    real space projection operators read in
  non local Contribution for L=           0  read in
    real space projection operators read in
  non local Contribution for L=           1  read in
    real space projection operators read in
  non local Contribution for L=           1  read in
    real space projection operators read in
    PAW grid and wavefunctions read in

   number of l-projection  operators is LMAX  =           4
   number of lm-projection operators is LMMAX =           8

 -----------------------------------------------------------------------------
|                                                                             |
|               ----> ADVICE to this user running VASP <----                  |
|                                                                             |
|     You have a (more or less) 'large supercell' and for larger cells it     |
|     might be more efficient to use real-space projection operators.         |
|     Therefore, try LREAL= Auto in the INCAR file.                           |
|     Mind: For very accurate calculation, you might also keep the            |
|     reciprocal projection scheme (i.e. LREAL=.FALSE.).                      |
|                                                                             |
 -----------------------------------------------------------------------------

  PAW_PBE C 08Apr2002                   :
 energy of atom  1       EATOM= -147.1560
 kinetic energy error for atom=    0.0057 (will be added to EATOM!!)
  PAW_PBE O 08Apr2002                   :
 energy of atom  2       EATOM= -432.3788
 kinetic energy error for atom=    0.0168 (will be added to EATOM!!)
  PAW_PBE Mg_pv 13Apr2007               :
 energy of atom  3       EATOM=-1056.7344
 kinetic energy error for atom=    0.0221 (will be added to EATOM!!)
  PAW_PBE O 08Apr2002                   :
 energy of atom  4       EATOM= -432.3788
 kinetic energy error for atom=    0.0168 (will be added to EATOM!!)


 POSCAR:  C  O Mg  O
  positions in direct lattice
  No initial velocities read in
 -----------------------------------------------------------------------------
|                                                                             |
|           W    W    AA    RRRRR   N    N  II  N    N   GGGG   !!!           |
|           W    W   A  A   R    R  NN   N  II  NN   N  G    G  !!!           |
|           W    W  A    A  R    R  N N  N  II  N N  N  G       !!!           |
|           W WW W  AAAAAA  RRRRR   N  N N  II  N  N N  G  GGG   !            |
|           WW  WW  A    A  R   R   N   NN  II  N   NN  G    G                |
|           W    W  A    A  R    R  N    N  II  N    N   GGGG   !!!           |
|                                                                             |
|     Specifying the vdW parameters                                           |
|     VDW_S8 = 1.201                                                          |
|     VDW_A1 = 0.401                                                          |
|     VDW_A2 = 5.029                                                          |
|     in the INCAR file will overwrite the defaults for pbe0. Please make     |
|     sure that is what you intended.                                         |
|                                                                             |
 -----------------------------------------------------------------------------

 exchange correlation table for  LEXCH =        8
   RHO(1)=    0.500       N(1)  =     2000
   RHO(2)=  100.500       N(2)  =     4000



--------------------------------------------------------------------------------------------------------


 ion  position               nearest neighbor table
   1  0.500  0.500  0.766-   2 1.13
   2  0.500  0.500  0.819-   1 1.13
   3  0.250  0.000  0.353-  37 2.09  38 2.09  45 2.09  54 2.09  35 2.09
   4  0.500  0.250  0.353-  37 2.09  38 2.09  46 2.09  53 2.09  36 2.09
   5  0.250  0.250  0.451-  35 2.09  36 2.09  43 2.09  52 2.09  37 2.09  41 2.09
   6  0.500  0.000  0.451-  35 2.09  36 2.09  44 2.09  51 2.09  38 2.09  42 2.09
   7  0.250  0.000  0.550-  42 2.09  41 2.09  49 2.09  58 2.09  35 2.10  39 2.12
   8  0.500  0.250  0.550-  50 2.08  41 2.09  57 2.09  42 2.09  36 2.10  40 2.12
   9  0.250  0.250  0.647-  41 2.08  39 2.09  56 2.09  47 2.09  40 2.09
  10  0.500  0.000  0.647-  40 2.08  48 2.08  42 2.08  39 2.09  55 2.09
  11  0.250  0.500  0.353-  37 2.09  45 2.09  46 2.09  62 2.09  43 2.09
  12  0.500  0.750  0.353-  38 2.09  45 2.09  46 2.09  61 2.09  44 2.09
  13  0.250  0.750  0.451-  35 2.09  43 2.09  44 2.09  60 2.09  45 2.09  49 2.09
  14  0.500  0.500  0.451-  36 2.09  43 2.09  44 2.09  59 2.09  46 2.09  50 2.10
  15  0.250  0.500  0.550-  50 2.08  49 2.09  41 2.09  66 2.09  43 2.10  47 2.12
  16  0.500  0.750  0.550-  50 2.08  49 2.09  65 2.09  42 2.09  44 2.10  48 2.12
  17  0.250  0.750  0.647-  49 2.08  39 2.09  64 2.09  47 2.09  48 2.09
  18  0.500  0.500  0.649-  40 2.10  47 2.10  48 2.10  63 2.10  50 2.12
  19  0.750  0.000  0.353-  38 2.09  53 2.09  54 2.09  61 2.09  51 2.09
  20  0.000  0.250  0.353-  37 2.09  53 2.09  54 2.09  62 2.09  52 2.09
  21  0.750  0.250  0.451-  36 2.09  51 2.09  52 2.09  59 2.09  53 2.09  57 2.09
  22  0.000  0.000  0.451-  35 2.09  51 2.09  52 2.09  60 2.09  54 2.09  58 2.09
  23  0.750  0.000  0.550-  42 2.09  57 2.09  65 2.09  58 2.09  51 2.10  55 2.12
  24  0.000  0.250  0.550-  66 2.09  57 2.09  41 2.09  58 2.09  52 2.10  56 2.12
  25  0.750  0.250  0.647-  57 2.08  56 2.09  55 2.09  40 2.09  63 2.09
  26  0.000  0.000  0.647-  58 2.08  55 2.09  56 2.09  39 2.09  64 2.09
  27  0.750  0.500  0.353-  46 2.09  53 2.09  61 2.09  62 2.09  59 2.09
  28  0.000  0.750  0.353-  45 2.09  54 2.09  61 2.09  62 2.09  60 2.09
  29  0.750  0.750  0.451-  44 2.09  51 2.09  59 2.09  60 2.09  61 2.09  65 2.09
  30  0.000  0.500  0.451-  43 2.09  52 2.09  59 2.09  60 2.09  62 2.09  66 2.09
  31  0.750  0.500  0.550-  50 2.08  57 2.09  65 2.09  66 2.09  59 2.10  63 2.12
  32  0.000  0.750  0.550-  66 2.09  65 2.09  49 2.09  58 2.09  60 2.10  64 2.12
  33  0.750  0.750  0.647-  65 2.08  64 2.09  55 2.09  48 2.09  63 2.09
  34  0.000  0.500  0.647-  47 2.08  63 2.08  66 2.08  64 2.09  56 2.09
  35  0.250  0.000  0.451-   5 2.09   6 2.09  13 2.09  22 2.09   3 2.09   7 2.10
  36  0.500  0.250  0.451-   5 2.09   6 2.09  14 2.09  21 2.09   4 2.09   8 2.10
  37  0.250  0.250  0.353-   3 2.09   4 2.09  11 2.09  20 2.09   5 2.09
  38  0.500  0.000  0.353-   3 2.09   4 2.09  12 2.09  19 2.09   6 2.09
  39  0.250  0.000  0.650-  26 2.09  17 2.09   9 2.09  10 2.09   7 2.12
  40  0.500  0.249  0.650-  10 2.08   9 2.09  25 2.09  18 2.10   8 2.12
  41  0.250  0.250  0.549-   9 2.08   8 2.09  15 2.09   7 2.09  24 2.09   5 2.09
  42  0.500  0.000  0.549-  10 2.08   7 2.09  23 2.09  16 2.09   8 2.09   6 2.09
  43  0.250  0.500  0.451-   5 2.09  13 2.09  14 2.09  30 2.09  11 2.09  15 2.10
  44  0.500  0.750  0.451-   6 2.09  13 2.09  14 2.09  29 2.09  12 2.09  16 2.10
  45  0.250  0.750  0.353-   3 2.09  11 2.09  12 2.09  28 2.09  13 2.09
  46  0.500  0.500  0.353-   4 2.09  11 2.09  12 2.09  27 2.09  14 2.09
  47  0.249  0.500  0.650-  34 2.08  17 2.09   9 2.09  18 2.10  15 2.12
  48  0.500  0.751  0.650-  10 2.08  17 2.09  33 2.09  18 2.10  16 2.12
  49  0.250  0.750  0.549-  17 2.08  16 2.09  15 2.09   7 2.09  32 2.09  13 2.09
  50  0.500  0.500  0.550-   8 2.08  15 2.08  16 2.08  31 2.08  14 2.10  18 2.12
  51  0.750  0.000  0.451-   6 2.09  21 2.09  22 2.09  29 2.09  19 2.09  23 2.10
  52  0.000  0.250  0.451-   5 2.09  21 2.09  22 2.09  30 2.09  20 2.09  24 2.10
  53  0.750  0.250  0.353-   4 2.09  19 2.09  20 2.09  27 2.09  21 2.09
  54  0.000  0.000  0.353-   3 2.09  19 2.09  20 2.09  28 2.09  22 2.09
  55  0.750  0.000  0.650-  26 2.09  25 2.09  33 2.09  10 2.09  23 2.12
  56  0.000  0.250  0.650-  26 2.09  25 2.09   9 2.09  34 2.09  24 2.12
  57  0.750  0.250  0.549-  25 2.08  31 2.09   8 2.09  23 2.09  24 2.09  21 2.09
  58  0.000  0.000  0.549-  26 2.08  23 2.09  24 2.09   7 2.09  32 2.09  22 2.09
  59  0.750  0.500  0.451-  14 2.09  21 2.09  29 2.09  30 2.09  27 2.09  31 2.10
  60  0.000  0.750  0.451-  13 2.09  22 2.09  29 2.09  30 2.09  28 2.09  32 2.10
  61  0.750  0.750  0.353-  12 2.09  19 2.09  27 2.09  28 2.09  29 2.09
  62  0.000  0.500  0.353-  11 2.09  20 2.09  27 2.09  28 2.09  30 2.09
  63  0.751  0.500  0.650-  34 2.08  33 2.09  25 2.09  18 2.10  31 2.12
  64  0.000  0.750  0.650-  26 2.09  17 2.09  33 2.09  34 2.09  32 2.12
  65  0.750  0.750  0.549-  33 2.08  31 2.09  16 2.09  32 2.09  23 2.09  29 2.09
  66  0.000  0.500  0.549-  34 2.08  32 2.09  24 2.09  31 2.09  15 2.09  30 2.09


IMPORTANT INFORMATION: All symmetrisations will be switched off!
NOSYMM: (Re-)initialisation of all symmetry stuff for point group C_1.


----------------------------------------------------------------------------------------

                                     Primitive cell                                     

  volume of cell :    1482.1129

  direct lattice vectors                    reciprocal lattice vectors
     8.349111827  0.000000000  0.000000000     0.119773219  0.000000000  0.000000000
     0.000000000  8.349111827  0.000000000     0.000000000  0.119773219  0.000000000
     0.000000000  0.000000000 21.261833870     0.000000000  0.000000000  0.047032632

  length of vectors
     8.349111827  8.349111827 21.261833870     0.119773219  0.119773219  0.047032632

  position of ions in fractional coordinates (direct lattice)
     0.500000000  0.500000000  0.765950645
     0.500000000  0.500000000  0.819088148
     0.250000000  0.000000000  0.352744737
     0.500000000  0.250000000  0.352744737
     0.250000000  0.250000000  0.450914912
     0.500000000  0.000000000  0.450914912
     0.250126707  0.000000000  0.549606520
     0.500000000  0.250385208  0.549848982
     0.249782306  0.249782306  0.647054444
     0.500000000  0.000000000  0.647128461
     0.250000000  0.500000000  0.352744737
     0.500000000  0.750000000  0.352744737
     0.250000000  0.750000000  0.450914912
     0.500000000  0.500000000  0.450914912
     0.250385208  0.500000000  0.549848982
     0.500000000  0.749614792  0.549848982
     0.249782306  0.750217694  0.647054444
     0.500000000  0.500000000  0.649476521
     0.750000000  0.000000000  0.352744737
     0.000000000  0.250000000  0.352744737
     0.750000000  0.250000000  0.450914912
     0.000000000  0.000000000  0.450914912
     0.749873293  0.000000000  0.549606520
     0.000000000  0.250126707  0.549606520
     0.750217694  0.249782306  0.647054444
     0.000000000  0.000000000  0.647144567
     0.750000000  0.500000000  0.352744737
     0.000000000  0.750000000  0.352744737
     0.750000000  0.750000000  0.450914912
     0.000000000  0.500000000  0.450914912
     0.749614792  0.500000000  0.549848982
     0.000000000  0.749873293  0.549606520
     0.750217694  0.750217694  0.647054444
     0.000000000  0.500000000  0.647128461
     0.250000000  0.000000000  0.450914912
     0.500000000  0.250000000  0.450914912
     0.250000000  0.250000000  0.352744737
     0.500000000  0.000000000  0.352744737
     0.249777413  0.000000000  0.649514620
     0.500000000  0.248844121  0.649619708
     0.250005084  0.250005084  0.549398552
     0.500000000  0.000000000  0.549333945
     0.250000000  0.500000000  0.450914912
     0.500000000  0.750000000  0.450914912
     0.250000000  0.750000000  0.352744737
     0.500000000  0.500000000  0.352744737
     0.248844121  0.500000000  0.649619708
     0.500000000  0.751155879  0.649619708
     0.250005084  0.749994916  0.549398552
     0.500000000  0.500000000  0.549862587
     0.750000000  0.000000000  0.450914912
     0.000000000  0.250000000  0.450914912
     0.750000000  0.250000000  0.352744737
     0.000000000  0.000000000  0.352744737
     0.750222587  0.000000000  0.649514620
     0.000000000  0.249777413  0.649514620
     0.749994916  0.250005084  0.549398552
     0.000000000  0.000000000  0.549313075
     0.750000000  0.500000000  0.450914912
     0.000000000  0.750000000  0.450914912
     0.750000000  0.750000000  0.352744737
     0.000000000  0.500000000  0.352744737
     0.751155879  0.500000000  0.649619708
     0.000000000  0.750222587  0.649514620
     0.749994916  0.749994916  0.549398552
     0.000000000  0.500000000  0.549333945

  ion indices of the primitive-cell ions
   primitive index   ion index
                 1           1
                 2           2
                 3           3
                 4           4
                 5           5
                 6           6
                 7           7
                 8           8
                 9           9
                10          10
                11          11
                12          12
                13          13
                14          14
                15          15
                16          16
                17          17
                18          18
                19          19
                20          20
                21          21
                22          22
                23          23
                24          24
                25          25
                26          26
                27          27
                28          28
                29          29
                30          30
                31          31
                32          32
                33          33
                34          34
                35          35
                36          36
                37          37
                38          38
                39          39
                40          40
                41          41
                42          42
                43          43
                44          44
                45          45
                46          46
                47          47
                48          48
                49          49
                50          50
                51          51
                52          52
                53          53
                54          54
                55          55
                56          56
                57          57
                58          58
                59          59
                60          60
                61          61
                62          62
                63          63
                64          64
                65          65
                66          66

----------------------------------------------------------------------------------------



 KPOINTS: pymatgen v2020.8.13 with grid density = 

Automatic generation of k-mesh.
 Grid dimensions read from file:
 generate k-points for:    2    2    1

 Generating k-lattice:

  Cartesian coordinates                     Fractional coordinates (reciprocal lattice)
     0.059886610  0.000000000  0.000000000     0.500000000  0.000000000  0.000000000
     0.000000000  0.059886610  0.000000000     0.000000000  0.500000000  0.000000000
     0.000000000  0.000000000  0.047032632     0.000000000  0.000000000  1.000000000

  Length of vectors
     0.059886610  0.059886610  0.047032632

  Shift w.r.t. Gamma in fractional coordinates (k-lattice)
     0.000000000  0.000000000  0.000000000

 
 Subroutine IBZKPT returns following result:
 ===========================================
 
 Found      4 irreducible k-points:
 
 Following reciprocal coordinates:
            Coordinates               Weight
  0.000000  0.000000  0.000000      1.000000
  0.500000  0.000000  0.000000      1.000000
  0.000000  0.500000  0.000000      1.000000
  0.500000  0.500000  0.000000      1.000000
 
 Following cartesian coordinates:
            Coordinates               Weight
  0.000000  0.000000  0.000000      1.000000
  0.059887  0.000000  0.000000      1.000000
  0.000000  0.059887  0.000000      1.000000
  0.059887  0.059887  0.000000      1.000000
 
 
 Subroutine IBZKPT_HF returns following result:
 ==============================================
 
 Found      4 k-points in 1st BZ
 the following      4 k-points will be used (e.g. in the exchange kernel)
 Following reciprocal coordinates:   # in IRBZ
  0.000000  0.000000  0.000000    0.25000000   1 t-inv F
  0.500000  0.000000  0.000000    0.25000000   2 t-inv F
  0.000000  0.500000  0.000000    0.25000000   3 t-inv F
  0.500000  0.500000  0.000000    0.25000000   4 t-inv F


--------------------------------------------------------------------------------------------------------




 Dimension of arrays:
   k-points           NKPTS =      4   k-points in BZ     NKDIM =      4   number of bands    NBANDS=    320
   number of dos      NEDOS =    301   number of ions     NIONS =     66
   non local maximal  LDIM  =      5   non local SUM 2l+1 LMDIM =     13
   total plane-waves  NPLWV = 882000
   max r-space proj   IRMAX =      1   max aug-charges    IRDMAX=  11926
   dimension x,y,z NGX =    70 NGY =   70 NGZ =  180
   dimension x,y,z NGXF=   140 NGYF=  140 NGZF=  360
   support grid    NGXF=   140 NGYF=  140 NGZF=  360
   ions per type =               1   1  32  32
   NGX,Y,Z   is equivalent  to a cutoff of  13.94, 13.94, 14.07 a.u.
   NGXF,Y,Z  is equivalent  to a cutoff of  27.88, 27.88, 28.15 a.u.

 SYSTEM =  MgO-rocksalt                            
 POSCAR =   C  O Mg  O                             

 Startparameter for this run:
   NWRITE =      2    write-flag & timer
   PREC   = accura    normal or accurate (medium, high low for compatibility)
   ISTART =      0    job   : 0-new  1-cont  2-samecut
   ICHARG =      2    charge: 1-file 2-atom 10-const
   ISPIN  =      1    spin polarized calculation?
   LNONCOLLINEAR =      F non collinear calculations
   LSORBIT =      F    spin-orbit coupling
   INIWAV =      1    electr: 0-lowe 1-rand  2-diag
   LASPH  =      T    aspherical Exc in radial PAW
 Electronic Relaxation 1
   ENCUT  =  600.0 eV  44.10 Ry    6.64 a.u.  16.68 16.68 42.47*2*pi/ulx,y,z
   ENINI  =  600.0     initial cutoff
   ENAUG  =  758.8 eV  augmentation charge cutoff
   NELM   =    200;   NELMIN=  8; NELMDL= -5     # of ELM steps 
   EDIFF  = 0.1E-06   stopping-criterion for ELM
   LREAL  =      F    real-space projection
   NLSPLINE    = F    spline interpolate recip. space projectors
   LCOMPAT=      F    compatible to vasp.4.4
   GGA_COMPAT  = T    GGA compatible to vasp.4.4-vasp.4.6
   LMAXPAW     = -100 max onsite density
   LMAXMIX     =    2 max onsite mixed and CHGCAR
   VOSKOWN=      0    Vosko Wilk Nusair interpolation
   ROPT   =    0.00000   0.00000   0.00000   0.00000
 Ionic relaxation
   EDIFFG = 0.1E-05   stopping-criterion for IOM
   NSW    =    829    number of steps for IOM
   NBLOCK =      1;   KBLOCK =    829    inner block; outer block 
   IBRION =      5    ionic relax: 0-MD 1-quasi-New 2-CG
   NFREE  =      2    steps in history (QN), initial steepest desc. (CG)
   ISIF   =      0    stress and relaxation
   IWAVPR =     11    prediction:  0-non 1-charg 2-wave 3-comb
   ISYM   =      0    0-nonsym 1-usesym 2-fastsym
   LCORR  =      T    Harris-Foulkes like correction to forces

   POTIM  = 0.0350    time-step for ionic-motion
   TEIN   =    0.0    initial temperature
   TEBEG  =    0.0;   TEEND  =   0.0 temperature during run
   SMASS  =  -3.00    Nose mass-parameter (am)
   estimated Nose-frequenzy (Omega)   =  0.10E-29 period in steps = 0.18E+48 mass=  -0.159E-26a.u.
   SCALEE = 1.0000    scale energy and forces
   NPACO  =    256;   APACO  = 10.0  distance and # of slots for P.C.
   PSTRESS=    0.0 pullay stress

  Mass of Ions in am
   POMASS =  12.01 16.00 24.30 16.00
  Ionic Valenz
   ZVAL   =   4.00  6.00  8.00  6.00
  Atomic Wigner-Seitz radii
   RWIGS  =  -1.00 -1.00 -1.00 -1.00
  virtual crystal weights 
   VCA    =   1.00  1.00  1.00  1.00
   NELECT =     458.0000    total number of electrons
   NUPDOWN=      -1.0000    fix difference up-down

 DOS related values:
   EMIN   =  10.00;   EMAX   =-10.00  energy-range for DOS
   EFERMI =   0.00
   ISMEAR =     0;   SIGMA  =   0.05  broadening in eV -4-tet -1-fermi 0-gaus

 Electronic relaxation 2 (details)
   IALGO  =     58    algorithm
   LDIAG  =      T    sub-space diagonalisation (order eigenvalues)
   LSUBROT=      F    optimize rotation matrix (better conditioning)
   TURBO    =      0    0=normal 1=particle mesh
   IRESTART =      0    0=no restart 2=restart with 2 vectors
   NREBOOT  =      0    no. of reboots
   NMIN     =      0    reboot dimension
   EREF     =   0.00    reference energy to select bands
   IMIX   =      4    mixing-type and parameters
     AMIX     =   0.40;   BMIX     =  1.00
     AMIX_MAG =   1.60;   BMIX_MAG =  1.00
     AMIN     =   0.10
     WC   =   100.;   INIMIX=   1;  MIXPRE=   1;  MAXMIX= -45

 Intra band minimization:
   WEIMIN = 0.0010     energy-eigenvalue tresh-hold
   EBREAK =  0.78E-10  absolut break condition
   DEPER  =   0.30     relativ break condition  

   TIME   =   0.40     timestep for ELM

  volume/ion in A,a.u.               =      22.46       151.54
  Fermi-wavevector in a.u.,A,eV,Ry     =   1.106801  2.091551 16.667254  1.225009
  Thomas-Fermi vector in A             =   2.243307

 Write flags
   LWAVE        =      F    write WAVECAR
   LDOWNSAMPLE  =      F    k-point downsampling of WAVECAR
   LCHARG       =      F    write CHGCAR
   LVTOT        =      F    write LOCPOT, total local potential
   LVHAR        =      F    write LOCPOT, Hartree potential only
   LELF         =      F    write electronic localiz. function (ELF)
   LORBIT       =      0    0 simple, 1 ext, 2 COOP (PROOUT), +10 PAW based schemes


 Dipole corrections
   LMONO  =      F    monopole corrections only (constant potential shift)
   LDIPOL =      T    correct potential (dipole corrections)
   IDIPOL =      3    1-x, 2-y, 3-z, 4-all directions 
   EPSILON=  1.0000000 bulk dielectric constant

 Exchange correlation treatment:
   GGA     =    PE    GGA type
   LEXCH   =     8    internal setting for exchange type
   LIBXC   =     F    Libxc                    
   VOSKOWN =     0    Vosko Wilk Nusair interpolation
   EXXOEP  =     0    0=HF, 1=EXX-LHF (local Hartree Fock) 2=EXX OEP
   LHFCALC =     T    Hartree Fock is set to
   LSYMGRAD=     F    symmetrize gradient (conserves proper symmetry)
   PRECFOCK=normal    Normal, Fast or Accurate (Low or Medium for compatibility)
   LRHFCALC=     F    long range Hartree Fock
   LRSCOR  =     F    long range correlation only (use DFT for short range part)
   LTHOMAS =     F    Thomas Fermi screening in HF
   LMODELHF=     F    short range full HF, long range fraction AEXX
   LFOCKACE=     T    use Adeptively-Compressed-Exchange operator
   ENCUT4O =  -1.0   cutoff for four orbital integrals eV
   LMAXFOCK=     4    L truncation for augmentation on plane wave grid
   LMAXFOCKAE=  -1    L truncation for all-electron charge restoration on plane wave grid
   NMAXFOCKAE=   1    number of basis functions for all-electron charge restoration
   LFOCKAEDFT=     F  apply the AE augmentation even for DFT
   NKREDX  =     1    reduce k-point grid by
   NKREDY  =     1    reduce k-point grid by
   NKREDZ  =     1    reduce k-point grid by
   SHIFTRED=     F    shift reduced grid of Gamma
   HFKIDENT=     F    idential grid for each k-point
   ODDONLY =     F    use only odd q-grid points
   EVENONLY=     F    use only even q-grid points
   HFALPHA =   -1.0000 decay constant for conv. correction
   MCALPHA =    0.0000 extent of test-charge in conv. correction in multipole expansion
   AEXX    =    0.2500 exact exchange contribution
   HFSCREEN=    0.0000 screening length (either q_TF or 0.3 A-1)
   HFSCREENC=   0.0000 screening length for correlation (either q_TF or 0.3 A-1)
   HFRCUT  =    0.0000 spherical cutoff for potential kernel
   ALDAX   =    0.7500 LDA exchange part
   AGGAX   =    0.7500 GGA exchange part
   ALDAC   =    1.0000 LDA correlation
   AGGAC   =    1.0000 GGA correlation
   ENCUTFOCK=  -1.0 apply spherical cutoff to Coloumb kernel
   NBANDSGWLOW=     1    first orbital included in HF term
   NBLOCK_FOCK=    64    blocking factor in FOCK_ACC

 Linear response parameters
   LEPSILON=     F    determine dielectric tensor
   LRPA    =     F    only Hartree local field effects (RPA)
   LNABLA  =     F    use nabla operator in PAW spheres
   LVEL    =     F    velocity operator in full k-point grid
   CSHIFT  =0.1000    complex shift for real part using Kramers Kronig
   OMEGAMAX=  -1.0    maximum frequency
   DEG_THRESHOLD= 0.2000000E-02 threshold for treating states as degnerate
   RTIME   =   -0.100 relaxation time in fs
  (WPLASMAI=    0.000 imaginary part of plasma frequency in eV, 0.658/RTIME)
   DFIELD  = 0.0000000 0.0000000 0.0000000 field for delta impulse in time

  Optional k-point grid parameters
   LKPOINTS_OPT  =     F    use optional k-point grid
   KPOINTS_OPT_MODE=     1    mode for optional k-point grid

 Orbital magnetization related:
   ORBITALMAG=     F  switch on orbital magnetization
   LCHIMAG   =     F  perturbation theory with respect to B field
   DQ        =  0.001000  dq finite difference perturbation B field
   LLRAUG    =     F  two centre corrections for induced B field



--------------------------------------------------------------------------------------------------------


 finite differences
   using selective dynamics as specified on POSCAR
 charge density and potential will be updated during run
 non-spin polarized calculation
 Conjugate gradient for all bands (Freysoldt, et al. PRB 79, 241103 (2009))
 preconditioned conjugated gradient                                        
 perform sub-space diagonalisation
    before iterative eigenvector-optimisation
 modified Broyden-mixing scheme, WC =      100.0
 initial mixing is a Kerker type mixing with AMIX =  0.4000 and BMIX =      1.0000
 Hartree-type preconditioning will be used
 using additional bands           91
 reciprocal scheme for non local part
 use partial core corrections
 no Harris-corrections to forces 
 use gradient corrections 
 use of overlap-Matrix (Vanderbilt PP)
 Gauss-broadening in eV      SIGMA  =   0.05


--------------------------------------------------------------------------------------------------------


  energy-cutoff  :      600.00
  volume of cell :     1482.11
      direct lattice vectors                 reciprocal lattice vectors
     8.349111827  0.000000000  0.000000000     0.119773219  0.000000000  0.000000000
     0.000000000  8.349111827  0.000000000     0.000000000  0.119773219  0.000000000
     0.000000000  0.000000000 21.261833870     0.000000000  0.000000000  0.047032632

  length of vectors
     8.349111827  8.349111827 21.261833870     0.119773219  0.119773219  0.047032632



 k-points in units of 2pi/SCALE and weight: pymatgen v2020.8.13 with grid density = 
   0.00000000  0.00000000  0.00000000       0.250
   0.05988661  0.00000000  0.00000000       0.250
   0.00000000  0.05988661  0.00000000       0.250
   0.05988661  0.05988661  0.00000000       0.250

 k-points in reciprocal lattice and weights: pymatgen v2020.8.13 with grid density = 
   0.00000000  0.00000000  0.00000000       0.250
   0.50000000  0.00000000  0.00000000       0.250
   0.00000000  0.50000000  0.00000000       0.250
   0.50000000  0.50000000  0.00000000       0.250

 position of ions in fractional coordinates (direct lattice) 
   0.50000000  0.50000000  0.76595064
   0.50000000  0.50000000  0.81908815
   0.25000000  0.00000000  0.35274474
   0.50000000  0.25000000  0.35274474
   0.25000000  0.25000000  0.45091491
   0.50000000  0.00000000  0.45091491
   0.25012671  0.00000000  0.54960652
   0.50000000  0.25038521  0.54984898
   0.24978231  0.24978231  0.64705444
   0.50000000  0.00000000  0.64712846
   0.25000000  0.50000000  0.35274474
   0.50000000  0.75000000  0.35274474
   0.25000000  0.75000000  0.45091491
   0.50000000  0.50000000  0.45091491
   0.25038521  0.50000000  0.54984898
   0.50000000  0.74961479  0.54984898
   0.24978231  0.75021769  0.64705444
   0.50000000  0.50000000  0.64947652
   0.75000000  0.00000000  0.35274474
   0.00000000  0.25000000  0.35274474
   0.75000000  0.25000000  0.45091491
   0.00000000  0.00000000  0.45091491
   0.74987329  0.00000000  0.54960652
   0.00000000  0.25012671  0.54960652
   0.75021769  0.24978231  0.64705444
   0.00000000  0.00000000  0.64714457
   0.75000000  0.50000000  0.35274474
   0.00000000  0.75000000  0.35274474
   0.75000000  0.75000000  0.45091491
   0.00000000  0.50000000  0.45091491
   0.74961479  0.50000000  0.54984898
   0.00000000  0.74987329  0.54960652
   0.75021769  0.75021769  0.64705444
   0.00000000  0.50000000  0.64712846
   0.25000000  0.00000000  0.45091491
   0.50000000  0.25000000  0.45091491
   0.25000000  0.25000000  0.35274474
   0.50000000  0.00000000  0.35274474
   0.24977741  0.00000000  0.64951462
   0.50000000  0.24884412  0.64961971
   0.25000508  0.25000508  0.54939855
   0.50000000  0.00000000  0.54933394
   0.25000000  0.50000000  0.45091491
   0.50000000  0.75000000  0.45091491
   0.25000000  0.75000000  0.35274474
   0.50000000  0.50000000  0.35274474
   0.24884412  0.50000000  0.64961971
   0.50000000  0.75115588  0.64961971
   0.25000508  0.74999492  0.54939855
   0.50000000  0.50000000  0.54986259
   0.75000000  0.00000000  0.45091491
   0.00000000  0.25000000  0.45091491
   0.75000000  0.25000000  0.35274474
   0.00000000  0.00000000  0.35274474
   0.75022259  0.00000000  0.64951462
   0.00000000  0.24977741  0.64951462
   0.74999492  0.25000508  0.54939855
   0.00000000  0.00000000  0.54931307
   0.75000000  0.50000000  0.45091491
   0.00000000  0.75000000  0.45091491
   0.75000000  0.75000000  0.35274474
   0.00000000  0.50000000  0.35274474
   0.75115588  0.50000000  0.64961971
   0.00000000  0.75022259  0.64951462
   0.74999492  0.74999492  0.54939855
   0.00000000  0.50000000  0.54933394

 position of ions in cartesian coordinates  (Angst):
   4.17455591  4.17455591 16.28551536
   4.17455591  4.17455591 17.41531613
   2.08727796  0.00000000  7.50000000
   4.17455591  2.08727796  7.50000000
   2.08727796  2.08727796  9.58727796
   4.17455591  0.00000000  9.58727796
   2.08833585  0.00000000 11.68564251
   4.17455591  2.09049410 11.69079771
   2.08546040  2.08546040 13.75756409
   4.17455591  0.00000000 13.75913783
   2.08727796  4.17455591  7.50000000
   4.17455591  6.26183387  7.50000000
   2.08727796  6.26183387  9.58727796
   4.17455591  4.17455591  9.58727796
   2.09049410  4.17455591 11.69079771
   4.17455591  6.25861772 11.69079771
   2.08546040  6.26365142 13.75756409
   4.17455591  4.17455591 13.80906190
   6.26183387  0.00000000  7.50000000
   0.00000000  2.08727796  7.50000000
   6.26183387  2.08727796  9.58727796
   0.00000000  0.00000000  9.58727796
   6.26077598  0.00000000 11.68564251
   0.00000000  2.08833585 11.68564251
   6.26365142  2.08546040 13.75756409
   0.00000000  0.00000000 13.75948028
   6.26183387  4.17455591  7.50000000
   0.00000000  6.26183387  7.50000000
   6.26183387  6.26183387  9.58727796
   0.00000000  4.17455591  9.58727796
   6.25861772  4.17455591 11.69079771
   0.00000000  6.26077598 11.68564251
   6.26365142  6.26365142 13.75756409
   0.00000000  4.17455591 13.75913783
   2.08727796  0.00000000  9.58727796
   4.17455591  2.08727796  9.58727796
   2.08727796  2.08727796  7.50000000
   4.17455591  0.00000000  7.50000000
   2.08541955  0.00000000 13.80987194
   4.17455591  2.07762739 13.81210630
   2.08732041  2.08732041 11.68122074
   4.17455591  0.00000000 11.67984707
   2.08727796  4.17455591  9.58727796
   4.17455591  6.26183387  9.58727796
   2.08727796  6.26183387  7.50000000
   4.17455591  4.17455591  7.50000000
   2.07762739  4.17455591 13.81210630
   4.17455591  6.27148443 13.81210630
   2.08732041  6.26179142 11.68122074
   4.17455591  4.17455591 11.69108697
   6.26183387  0.00000000  9.58727796
   0.00000000  2.08727796  9.58727796
   6.26183387  2.08727796  7.50000000
   0.00000000  0.00000000  7.50000000
   6.26369228  0.00000000 13.80987194
   0.00000000  2.08541955 13.80987194
   6.26179142  2.08732041 11.68122074
   0.00000000  0.00000000 11.67940333
   6.26183387  4.17455591  9.58727796
   0.00000000  6.26183387  9.58727796
   6.26183387  6.26183387  7.50000000
   0.00000000  4.17455591  7.50000000
   6.27148443  4.17455591 13.81210630
   0.00000000  6.26369228 13.80987194
   6.26179142  6.26179142 11.68122074
   0.00000000  4.17455591 11.67984707



--------------------------------------------------------------------------------------------------------


 k-point   1 :   0.0000 0.0000 0.0000  plane waves:   49537
 k-point   2 :   0.5000 0.0000 0.0000  plane waves:   49450
 k-point   3 :   0.0000 0.5000 0.0000  plane waves:   49450
 k-point   4 :   0.5000 0.5000 0.0000  plane waves:   49384

 maximum and minimum number of plane-waves per node :      6223     6142

 maximum number of plane-waves:     49537
 maximum index in each direction: 
   IXMAX=   16   IYMAX=   16   IZMAX=   42
   IXMIN=  -17   IYMIN=  -17   IZMIN=  -42


 parallel 3D FFT for wavefunctions:
    minimum data exchange during FFTs selected (reduces bandwidth)
 parallel 3D FFT for charge:
    minimum data exchange during FFTs selected (reduces bandwidth)


 FFT grid for exact exchange (Hartree Fock) 
  NGX = 54; NGY = 54; NGZ =140


 Radii for the augmentation spheres in the non-local exchange
 for species   1 augmentation radius   0.874 (default was   0.699)
       energy cutoff for augmentation   2400.0
 for species   2 augmentation radius   0.902 (default was   0.722)
       energy cutoff for augmentation   2400.0
 for species   3 augmentation radius   1.037 (default was   0.829)
       energy cutoff for augmentation   2400.0
 for species   4 augmentation radius   0.902 (default was   0.722)
       energy cutoff for augmentation   2400.0

 real space projection operators:
  total allocation   :      10040.79 KBytes
  max/ min on nodes  :       1388.66        939.16

 Maximum index for augmentation-charges in exchange          180
  SETUP_FOCK is finished

 total amount of memory used by VASP MPI-rank0    72428. kBytes
=======================================================================

   base      :      30000. kBytes
   nonl-proj :      16885. kBytes
   fftplans  :       7989. kBytes
   grid      :       8190. kBytes
   one-center:         73. kBytes
   HF        :        101. kBytes
   nonlr-proj:       3109. kBytes
   wavefun   :       6081. kBytes

     INWAV:  cpu time      0.0001: real time      0.0003
 Broyden mixing: mesh for mixing (old mesh)
   NGX = 33   NGY = 33   NGZ = 85
  (NGX  =140   NGY  =140   NGZ  =360)
  gives a total of  92565 points

 initial charge density was supplied:
 charge density of overlapping atoms calculated
 number of electron     458.0000000 magnetization 
 keeping initial charge density in first step


--------------------------------------------------------------------------------------------------------


 Maximum index for augmentation-charges          612 (set IRDMAX)


--------------------------------------------------------------------------------------------------------


    FEWALD:  cpu time      0.0029: real time      0.0029


--------------------------------------- Iteration      1(   1)  ---------------------------------------


    POTLOK:  cpu time      0.0830: real time      0.0835
    SETDIJ:  cpu time      0.1932: real time      0.1932
    TRIAL :  cpu time     18.8402: real time     18.9337
    CORREC:  cpu time      0.0013: real time      0.0013
    --------------------------------------------
      LOOP:  cpu time     19.1193: real time     19.2495

 eigenvalue-minimisations  :  3072
 total energy-change (2. order) : 0.6048047E+03  (-0.3128462E+05)
 number of electron     458.0000000 magnetization 
 augmentation part      458.0000000 magnetization 

 DIPCOR: dipole corrections for dipol
 direction  3 min pos     1,
 dipolmoment           0.000000      0.000000     -0.000267 electrons x Angstroem
 Tr[quadrupol]     -6181.468702

 energy correction for charged system         0.000000 eV
 dipol+quadrupol energy correction           -0.000000 eV
 added-field ion interaction          0.002183 eV  (added to PSCEN)


 Free energy of the ion-electron system (eV)
  ---------------------------------------------------
  alpha Z        PSCENC =       931.06614227
  Ewald energy   TEWEN  =    141776.57672692
  -Hartree energ DENC   =   -177879.84644720
  -exchange      EXHF   =         0.00000000
  -V(xc)+E(xc)   XCENC  =      1793.45226102
  PAW double counting   =     32310.01086261   -39107.06083553
  entropy T*S    EENTRO =        -0.00449072
  eigenvalues    EBANDS =     -7326.91041668
  atomic energy  EATOM  =     48107.52088990
  ---------------------------------------------------
  free energy    TOTEN  =       604.80469258 eV

  energy without entropy =      604.80918330  energy(sigma->0) =      604.80693794
  exchange ACFDT corr.  =         0.00000000  see jH, gK, PRB 81, 115126


--------------------------------------------------------------------------------------------------------




--------------------------------------- Iteration      1(   2)  ---------------------------------------


    TRIAL :  cpu time      3.9142: real time      3.9150
    CORREC:  cpu time      0.0003: real time      0.0003
    --------------------------------------------
      LOOP:  cpu time      3.9290: real time      3.9302

 eigenvalue-minimisations  :  3072
 total energy-change (2. order) :-0.4356297E+04  (-0.4286302E+04)
 number of electron     458.0000000 magnetization 
 augmentation part      458.0000000 magnetization 

 DIPCOR: dipole corrections for dipol
 direction  3 min pos     1,
 dipolmoment           0.000000      0.000000     -0.000267 electrons x Angstroem
 Tr[quadrupol]     -6181.468702

 energy correction for charged system         0.000000 eV
 dipol+quadrupol energy correction           -0.000000 eV
 added-field ion interaction          0.002183 eV  (added to PSCEN)


 Free energy of the ion-electron system (eV)
  ---------------------------------------------------
  alpha Z        PSCENC =       931.06614227
  Ewald energy   TEWEN  =    141776.57672692
  -Hartree energ DENC   =   -177879.84644720
  -exchange      EXHF   =         0.00000000
  -V(xc)+E(xc)   XCENC  =      1793.45226102
  PAW double counting   =     32310.01086261   -39107.06083553
  entropy T*S    EENTRO =        -0.00000000
  eigenvalues    EBANDS =    -11683.21155502
  atomic energy  EATOM  =     48107.52088990
  ---------------------------------------------------
  free energy    TOTEN  =     -3751.49195503 eV

  energy without entropy =    -3751.49195503  energy(sigma->0) =    -3751.49195503
  exchange ACFDT corr.  =         0.00000000  see jH, gK, PRB 81, 115126


--------------------------------------------------------------------------------------------------------




--------------------------------------- Iteration      1(   3)  ---------------------------------------


    TRIAL :  cpu time      4.1499: real time      4.1501
    CORREC:  cpu time      0.0003: real time      0.0003
    --------------------------------------------
      LOOP:  cpu time      4.1568: real time      4.1646

 eigenvalue-minimisations  :  3072
 total energy-change (2. order) :-0.3107602E+03  (-0.3087743E+03)
 number of electron     458.0000000 magnetization 
 augmentation part      458.0000000 magnetization 

 DIPCOR: dipole corrections for dipol
 direction  3 min pos     1,
 dipolmoment           0.000000      0.000000     -0.000267 electrons x Angstroem
 Tr[quadrupol]     -6181.468702

 energy correction for charged system         0.000000 eV
 dipol+quadrupol energy correction           -0.000000 eV
 added-field ion interaction          0.002183 eV  (added to PSCEN)


 Free energy of the ion-electron system (eV)
  ---------------------------------------------------
  alpha Z        PSCENC =       931.06614227
  Ewald energy   TEWEN  =    141776.57672692
  -Hartree energ DENC   =   -177879.84644720
  -exchange      EXHF   =         0.00000000
  -V(xc)+E(xc)   XCENC  =      1793.45226102
  PAW double counting   =     32310.01086261   -39107.06083553
  entropy T*S    EENTRO =        -0.00000000
  eigenvalues    EBANDS =    -11993.97173681
  atomic energy  EATOM  =     48107.52088990
  ---------------------------------------------------
  free energy    TOTEN  =     -4062.25213682 eV

  energy without entropy =    -4062.25213682  energy(sigma->0) =    -4062.25213682
  exchange ACFDT corr.  =         0.00000000  see jH, gK, PRB 81, 115126


--------------------------------------------------------------------------------------------------------




--------------------------------------- Iteration      1(   4)  ---------------------------------------


    TRIAL :  cpu time      4.2009: real time      4.2017
    CORREC:  cpu time      0.0003: real time      0.0003
    --------------------------------------------
      LOOP:  cpu time      4.2159: real time      4.2170

 eigenvalue-minimisations  :  3136
 total energy-change (2. order) :-0.5949558E+01  (-0.5943396E+01)
 number of electron     458.0000000 magnetization 
 augmentation part      458.0000000 magnetization 

 DIPCOR: dipole corrections for dipol
 direction  3 min pos     1,
 dipolmoment           0.000000      0.000000     -0.000267 electrons x Angstroem
 Tr[quadrupol]     -6181.468702

 energy correction for charged system         0.000000 eV
 dipol+quadrupol energy correction           -0.000000 eV
 added-field ion interaction          0.002183 eV  (added to PSCEN)


 Free energy of the ion-electron system (eV)
  ---------------------------------------------------
  alpha Z        PSCENC =       931.06614227
  Ewald energy   TEWEN  =    141776.57672692
  -Hartree energ DENC   =   -177879.84644720
  -exchange      EXHF   =         0.00000000
  -V(xc)+E(xc)   XCENC  =      1793.45226102
  PAW double counting   =     32310.01086261   -39107.06083553
  entropy T*S    EENTRO =        -0.00000000
  eigenvalues    EBANDS =    -11999.92129491
  atomic energy  EATOM  =     48107.52088990
  ---------------------------------------------------
  free energy    TOTEN  =     -4068.20169493 eV

  energy without entropy =    -4068.20169493  energy(sigma->0) =    -4068.20169493
  exchange ACFDT corr.  =         0.00000000  see jH, gK, PRB 81, 115126


--------------------------------------------------------------------------------------------------------




--------------------------------------- Iteration      1(   5)  ---------------------------------------


    POTLOK:  cpu time      0.0588: real time      0.0588
    SETDIJ:  cpu time      0.1889: real time      0.1889
    TRIAL :  cpu time    101.9772: real time    101.9899
    CORREC:  cpu time      0.0003: real time      0.0003
    CHARGE:  cpu time      0.0434: real time      0.0437
    --------------------------------------------
      LOOP:  cpu time    102.2822: real time    102.2955

 eigenvalue-minimisations  :  3072
 total energy-change (2. order) : 0.3506710E+04  (-0.2324764E+01)
 number of electron     457.9999885 magnetization 
 augmentation part      160.5917767 magnetization 

 DIPCOR: dipole corrections for dipol
 direction  3 min pos     1,
 dipolmoment           0.000000      0.000000     -0.000267 electrons x Angstroem
 Tr[quadrupol]     -6181.468702

 energy correction for charged system         0.000000 eV
 dipol+quadrupol energy correction           -0.000000 eV
 added-field ion interaction          0.002183 eV  (added to PSCEN)


 Free energy of the ion-electron system (eV)
  ---------------------------------------------------
  alpha Z        PSCENC =       931.06614227
  Ewald energy   TEWEN  =    141776.57672692
  -Hartree energ DENC   =   -177879.84644720
  -exchange      EXHF   =      1706.86104310
  -V(xc)+E(xc)   XCENC  =      1371.46892045
  PAW double counting   =     32705.07187869   -36310.02099081
  entropy T*S    EENTRO =        -0.00000000
  eigenvalues    EBANDS =    -12970.18951863
  atomic energy  EATOM  =     48107.52088990
  ---------------------------------------------------
  free energy    TOTEN  =      -561.49135532 eV

  energy without entropy =     -561.49135532  energy(sigma->0) =     -561.49135532
  exchange ACFDT corr.  =         0.00000000  see jH, gK, PRB 81, 115126


--------------------------------------------------------------------------------------------------------




--------------------------------------- Iteration      1(   6)  ---------------------------------------


    POTLOK:  cpu time      0.0584: real time      0.0584
    SETDIJ:  cpu time      0.1889: real time      0.1889
    TRIAL :  cpu time     98.7678: real time     98.7784
    CORREC:  cpu time     98.2221: real time     98.2327
    CHARGE:  cpu time      0.0388: real time      0.0388
    --------------------------------------------
      LOOP:  cpu time    197.2911: real time    197.3124

 eigenvalue-minimisations  :     0
 total energy-change (2. order) : 0.2093996E+03  (-0.1111988E+03)
 number of electron     457.9999856 magnetization 
 augmentation part      157.1257119 magnetization 

 DIPCOR: dipole corrections for dipol
 direction  3 min pos     1,
 dipolmoment           0.000000      0.000000      0.304127 electrons x Angstroem
 Tr[quadrupol]     -6215.766658

 energy correction for charged system         0.000000 eV
 dipol+quadrupol energy correction           -0.005646 eV
 added-field ion interaction         -2.491164 eV  (added to PSCEN)


 Free energy of the ion-electron system (eV)
  ---------------------------------------------------
  alpha Z        PSCENC =       926.55785282
  Ewald energy   TEWEN  =    141776.57672692
  -Hartree energ DENC   =   -182017.17268052
  -exchange      EXHF   =      1709.76637875
  -V(xc)+E(xc)   XCENC  =      1475.65407058
  PAW double counting   =     38179.48758489   -41753.77903044
  entropy T*S    EENTRO =        -0.00000000
  eigenvalues    EBANDS =     -8756.70359568
  atomic energy  EATOM  =     48107.52088990
  ---------------------------------------------------
  free energy    TOTEN  =      -352.09180279 eV

  energy without entropy =     -352.09180279  energy(sigma->0) =     -352.09180279
  exchange ACFDT corr.  =         0.00000000  see jH, gK, PRB 81, 115126


--------------------------------------------------------------------------------------------------------




--------------------------------------- Iteration      1(   7)  ---------------------------------------


    POTLOK:  cpu time      0.0579: real time      0.0579
    SETDIJ:  cpu time      0.1904: real time      0.1904
    TRIAL :  cpu time     98.6513: real time     98.6621
    CORREC:  cpu time     98.4033: real time     98.4137
    CHARGE:  cpu time      0.0439: real time      0.0439
    --------------------------------------------
      LOOP:  cpu time    197.3538: real time    197.3833

 eigenvalue-minimisations  :     0
 total energy-change (2. order) :-0.1117267E+03  (-0.9121127E+01)
 number of electron     457.9999853 magnetization 
 augmentation part      155.3118795 magnetization 

 DIPCOR: dipole corrections for dipol
 direction  3 min pos     1,
 dipolmoment           0.000000      0.000000      0.245277 electrons x Angstroem
 Tr[quadrupol]     -6225.034417

 energy correction for charged system         0.000000 eV
 dipol+quadrupol energy correction           -0.003673 eV
 added-field ion interaction         -2.009113 eV  (added to PSCEN)


 Free energy of the ion-electron system (eV)
  ---------------------------------------------------
  alpha Z        PSCENC =       928.31620274
  Ewald energy   TEWEN  =    141776.57672692
  -Hartree energ DENC   =   -179989.37102812
  -exchange      EXHF   =      1646.14469751
  -V(xc)+E(xc)   XCENC  =      1419.14241780
  PAW double counting   =     37023.85495999   -40649.86840210
  entropy T*S    EENTRO =        -0.00000000
  eigenvalues    EBANDS =    -10726.13495330
  atomic energy  EATOM  =     48107.52088990
  ---------------------------------------------------
  free energy    TOTEN  =      -463.81848866 eV

  energy without entropy =     -463.81848866  energy(sigma->0) =     -463.81848866
  exchange ACFDT corr.  =        -0.00000000  see jH, gK, PRB 81, 115126


--------------------------------------------------------------------------------------------------------




--------------------------------------- Iteration      1(   8)  ---------------------------------------


    POTLOK:  cpu time      0.0579: real time      0.0579
    SETDIJ:  cpu time      0.1888: real time      0.1888
    TRIAL :  cpu time     98.7399: real time     98.7502
    CORREC:  cpu time     98.4911: real time     98.5014
    CHARGE:  cpu time      0.0459: real time      0.0459
    --------------------------------------------
      LOOP:  cpu time    197.5387: real time    197.5596

 eigenvalue-minimisations  :     0
 total energy-change (2. order) :-0.9178485E+01  (-0.5763381E+01)
 number of electron     457.9999849 magnetization 
 augmentation part      155.3431116 magnetization 

 DIPCOR: dipole corrections for dipol
 direction  3 min pos     1,
 dipolmoment           0.000000      0.000000      0.146822 electrons x Angstroem
 Tr[quadrupol]     -6225.978412

 energy correction for charged system         0.000000 eV
 dipol+quadrupol energy correction           -0.001316 eV
 added-field ion interaction         -1.202643 eV  (added to PSCEN)


 Free energy of the ion-electron system (eV)
  ---------------------------------------------------
  alpha Z        PSCENC =       929.34128811
  Ewald energy   TEWEN  =    141776.57672692
  -Hartree energ DENC   =   -180028.19220402
  -exchange      EXHF   =      1639.02715573
  -V(xc)+E(xc)   XCENC  =      1411.84849759
  PAW double counting   =     36969.11052630   -40537.20074380
  entropy T*S    EENTRO =        -0.00000000
  eigenvalues    EBANDS =    -10741.02911063
  atomic energy  EATOM  =     48107.52088990
  ---------------------------------------------------
  free energy    TOTEN  =      -472.99697390 eV

  energy without entropy =     -472.99697390  energy(sigma->0) =     -472.99697390
  exchange ACFDT corr.  =         0.00000000  see jH, gK, PRB 81, 115126


--------------------------------------------------------------------------------------------------------




--------------------------------------- Iteration      1(   9)  ---------------------------------------


    POTLOK:  cpu time      0.0618: real time      0.0618
    SETDIJ:  cpu time      0.1889: real time      0.1889
    TRIAL :  cpu time     98.7268: real time     98.7372
    CORREC:  cpu time     98.4089: real time     98.4163
    CHARGE:  cpu time      0.0419: real time      0.0419
    --------------------------------------------
      LOOP:  cpu time    197.4399: real time    197.4682

 eigenvalue-minimisations  :     0
 total energy-change (2. order) :-0.5704570E+01  (-0.3172811E+01)
 number of electron     457.9999848 magnetization 
 augmentation part      155.3517427 magnetization 

 DIPCOR: dipole corrections for dipol
 direction  3 min pos     1,
 dipolmoment           0.000000      0.000000      0.103473 electrons x Angstroem
 Tr[quadrupol]     -6221.506075

 energy correction for charged system         0.000000 eV
 dipol+quadrupol energy correction           -0.000654 eV
 added-field ion interaction         -0.847571 eV  (added to PSCEN)


 Free energy of the ion-electron system (eV)
  ---------------------------------------------------
  alpha Z        PSCENC =       930.13137110
  Ewald energy   TEWEN  =    141776.57672692
  -Hartree energ DENC   =   -179946.73072995
  -exchange      EXHF   =      1635.90250112
  -V(xc)+E(xc)   XCENC  =      1410.21345425
  PAW double counting   =     36869.78047142   -40469.63738435
  entropy T*S    EENTRO =        -0.00000000
  eigenvalues    EBANDS =    -10792.45884409
  atomic energy  EATOM  =     48107.52088990
  ---------------------------------------------------
  free energy    TOTEN  =      -478.70154367 eV

  energy without entropy =     -478.70154367  energy(sigma->0) =     -478.70154367
  exchange ACFDT corr.  =         0.00000000  see jH, gK, PRB 81, 115126


--------------------------------------------------------------------------------------------------------




--------------------------------------- Iteration      1(  10)  ---------------------------------------


    POTLOK:  cpu time      0.0586: real time      0.0586
    SETDIJ:  cpu time      0.1889: real time      0.1889
    TRIAL :  cpu time     98.7593: real time     98.7683
    CORREC:  cpu time     98.4092: real time     98.4179
    CHARGE:  cpu time      0.0444: real time      0.0444
    --------------------------------------------
      LOOP:  cpu time    197.4766: real time    197.4946

 eigenvalue-minimisations  :     0
 total energy-change (2. order) :-0.3176329E+01  (-0.1262958E+01)
 number of electron     457.9999849 magnetization 
 augmentation part      155.2106297 magnetization 

 DIPCOR: dipole corrections for dipol
 direction  3 min pos     1,
 dipolmoment           0.000000      0.000000      0.119213 electrons x Angstroem
 Tr[quadrupol]     -6218.807387

 energy correction for charged system         0.000000 eV
 dipol+quadrupol energy correction           -0.000868 eV
 added-field ion interaction         -0.976500 eV  (added to PSCEN)


 Free energy of the ion-electron system (eV)
  ---------------------------------------------------
  alpha Z        PSCENC =       930.21058168
  Ewald energy   TEWEN  =    141776.57672692
  -Hartree energ DENC   =   -179790.35811578
  -exchange      EXHF   =      1632.44056583
  -V(xc)+E(xc)   XCENC  =      1408.36067379
  PAW double counting   =     36713.07802042   -40324.74950397
  entropy T*S    EENTRO =        -0.00000000
  eigenvalues    EBANDS =    -10934.95771197
  atomic energy  EATOM  =     48107.52088990
  ---------------------------------------------------
  free energy    TOTEN  =      -481.87787316 eV

  energy without entropy =     -481.87787316  energy(sigma->0) =     -481.87787316
  exchange ACFDT corr.  =         0.00000000  see jH, gK, PRB 81, 115126


--------------------------------------------------------------------------------------------------------




--------------------------------------- Iteration      1(  11)  ---------------------------------------


    POTLOK:  cpu time      0.0577: real time      0.0577
    SETDIJ:  cpu time      0.1916: real time      0.1917
    TRIAL :  cpu time     98.6891: real time     98.6984
    CORREC:  cpu time     98.3728: real time     98.3823
    CHARGE:  cpu time      0.0444: real time      0.0444
    --------------------------------------------
      LOOP:  cpu time    197.3602: real time    197.3906

 eigenvalue-minimisations  :     0
 total energy-change (2. order) :-0.1265207E+01  (-0.4545769E+00)
 number of electron     457.9999850 magnetization 
 augmentation part      155.3005352 magnetization 

 DIPCOR: dipole corrections for dipol
 direction  3 min pos     1,
 dipolmoment           0.000000      0.000000      0.134723 electrons x Angstroem
 Tr[quadrupol]     -6218.434410

 energy correction for charged system         0.000000 eV
 dipol+quadrupol energy correction           -0.001108 eV
 added-field ion interaction         -1.103539 eV  (added to PSCEN)


 Free energy of the ion-electron system (eV)
  ---------------------------------------------------
  alpha Z        PSCENC =       930.10401149
  Ewald energy   TEWEN  =    141776.57672692
  -Hartree energ DENC   =   -179680.24495145
  -exchange      EXHF   =      1630.29918007
  -V(xc)+E(xc)   XCENC  =      1407.03046710
  PAW double counting   =     36611.12813180   -40211.52590865
  entropy T*S    EENTRO =        -0.00000000
  eigenvalues    EBANDS =    -11054.03162748
  atomic energy  EATOM  =     48107.52088990
  ---------------------------------------------------
  free energy    TOTEN  =      -483.14308030 eV

  energy without entropy =     -483.14308030  energy(sigma->0) =     -483.14308030
  exchange ACFDT corr.  =         0.00000000  see jH, gK, PRB 81, 115126


--------------------------------------------------------------------------------------------------------




--------------------------------------- Iteration      1(  12)  ---------------------------------------


    POTLOK:  cpu time      0.0575: real time      0.0575
    SETDIJ:  cpu time      0.1929: real time      0.1930
    TRIAL :  cpu time     98.7236: real time     98.7326
    CORREC:  cpu time     98.3952: real time     98.4043
    CHARGE:  cpu time      0.0437: real time      0.0437
    --------------------------------------------
      LOOP:  cpu time    197.4283: real time    197.4466

 eigenvalue-minimisations  :     0
 total energy-change (2. order) :-0.4545740E+00  (-0.1666894E+00)
 number of electron     457.9999851 magnetization 
 augmentation part      155.4698274 magnetization 

 DIPCOR: dipole corrections for dipol
 direction  3 min pos     1,
 dipolmoment           0.000000      0.000000      0.146207 electrons x Angstroem
 Tr[quadrupol]     -6218.312751

 energy correction for charged system         0.000000 eV
 dipol+quadrupol energy correction           -0.001305 eV
 added-field ion interaction         -1.197611 eV  (added to PSCEN)


 Free energy of the ion-electron system (eV)
  ---------------------------------------------------
  alpha Z        PSCENC =       929.95782081
  Ewald energy   TEWEN  =    141776.57672692
  -Hartree energ DENC   =   -179651.61319408
  -exchange      EXHF   =      1629.97788755
  -V(xc)+E(xc)   XCENC  =      1407.08782410
  PAW double counting   =     36578.59607552   -40176.28771133
  entropy T*S    EENTRO =        -0.00000000
  eigenvalues    EBANDS =    -11085.41397371
  atomic energy  EATOM  =     48107.52088990
  ---------------------------------------------------
  free energy    TOTEN  =      -483.59765433 eV

  energy without entropy =     -483.59765433  energy(sigma->0) =     -483.59765433
  exchange ACFDT corr.  =         0.00000000  see jH, gK, PRB 81, 115126


--------------------------------------------------------------------------------------------------------




--------------------------------------- Iteration      1(  13)  ---------------------------------------


    POTLOK:  cpu time      0.0609: real time      0.0609
    SETDIJ:  cpu time      0.1888: real time      0.1888
    TRIAL :  cpu time     98.6725: real time     98.6805
    CORREC:  cpu time     98.4013: real time     98.4073
    CHARGE:  cpu time      0.0444: real time      0.0444
    --------------------------------------------
      LOOP:  cpu time    197.3829: real time    197.3971

 eigenvalue-minimisations  :     0
 total energy-change (2. order) :-0.1666971E+00  (-0.6552410E-01)
 number of electron     457.9999851 magnetization 
 augmentation part      155.5466268 magnetization 

 DIPCOR: dipole corrections for dipol
 direction  3 min pos     1,
 dipolmoment           0.000000      0.000000      0.148725 electrons x Angstroem
 Tr[quadrupol]     -6218.315735

 energy correction for charged system         0.000000 eV
 dipol+quadrupol energy correction           -0.001350 eV
 added-field ion interaction         -1.218234 eV  (added to PSCEN)


 Free energy of the ion-electron system (eV)
  ---------------------------------------------------
  alpha Z        PSCENC =       929.86295100
  Ewald energy   TEWEN  =    141776.57672692
  -Hartree energ DENC   =   -179659.74764308
  -exchange      EXHF   =      1630.30721648
  -V(xc)+E(xc)   XCENC  =      1407.58619860
  PAW double counting   =     36578.27176836   -40180.08465441
  entropy T*S    EENTRO =        -0.00000000
  eigenvalues    EBANDS =    -11074.05780521
  atomic energy  EATOM  =     48107.52088990
  ---------------------------------------------------
  free energy    TOTEN  =      -483.76435144 eV

  energy without entropy =     -483.76435144  energy(sigma->0) =     -483.76435144
[...]
      6.261834  0.000000  7.500000            0           0           0  
      0.000000  2.087278  7.500000            0           0           0  
      6.261834  2.087278  9.587278            0           0           0  
      0.000000  0.000000  9.587278            0           0           0  
      6.260776  0.000000 11.685643            0           0           0  
      0.000000  2.088336 11.685643            0           0           0  
      6.263651  2.085460 13.757564            0           0           0  
      0.000000  0.000000 13.759480            0           0           0  
      6.261834  4.174556  7.500000            0           0           0  
      0.000000  6.261834  7.500000            0           0           0  
      6.261834  6.261834  9.587278            0           0           0  
      0.000000  4.174556  9.587278            0           0           0  
      6.258618  4.174556 11.690798            0           0           0  
      0.000000  6.260776 11.685643            0           0           0  
      6.263651  6.263651 13.757564            0           0           0  
      0.000000  4.174556 13.759138            0           0           0  
      2.087278  0.000000  9.587278            0           0           0  
      4.174556  2.087278  9.587278            0           0           0  
      2.087278  2.087278  7.500000            0           0           0  
      4.174556  0.000000  7.500000            0           0           0  
      2.085420  0.000000 13.809872            0           0           0  
      4.174556  2.077627 13.812106            0           0           0  
      2.087320  2.087320 11.681221            0           0           0  
      4.174556  0.000000 11.679847            0           0           0  
      2.087278  4.174556  9.587278            0           0           0  
      4.174556  6.261834  9.587278            0           0           0  
      2.087278  6.261834  7.500000            0           0           0  
      4.174556  4.174556  7.500000            0           0           0  
      2.077627  4.174556 13.812106            0           0           0  
      4.174556  6.271484 13.812106            0           0           0  
      2.087320  6.261791 11.681221            0           0           0  
      4.174556  4.174556 11.691087            0           0           0  
      6.261834  0.000000  9.587278            0           0           0  
      0.000000  2.087278  9.587278            0           0           0  
      6.261834  2.087278  7.500000            0           0           0  
      0.000000  0.000000  7.500000            0           0           0  
      6.263692  0.000000 13.809872            0           0           0  
      0.000000  2.085420 13.809872            0           0           0  
      6.261791  2.087320 11.681221            0           0           0  
      0.000000  0.000000 11.679403            0           0           0  
      6.261834  4.174556  9.587278            0           0           0  
      0.000000  6.261834  9.587278            0           0           0  
      6.261834  6.261834  7.500000            0           0           0  
      0.000000  4.174556  7.500000            0           0           0  
      6.271484  4.174556 13.812106            0           0           0  
      0.000000  6.263692 13.809872            0           0           0  
      6.261791  6.261791 11.681221            0           0           0  
      0.000000  4.174556 11.679847            0           0           0  

   4 f  =    2.984043 THz    18.749294 2PiTHz   99.536955 cm-1    12.341004 meV
             X         Y         Z           dx          dy          dz
      4.174556  4.174556 16.285515    -0.001028   -0.004434    0.653063  
      4.174556  4.174556 17.415316     0.000980   -0.005861    0.757267  
      2.087278  0.000000  7.500000            0           0           0  
      4.174556  2.087278  7.500000            0           0           0  
      2.087278  2.087278  9.587278            0           0           0  
      4.174556  0.000000  9.587278            0           0           0  
      2.088336  0.000000 11.685643            0           0           0  
      4.174556  2.090494 11.690798            0           0           0  
      2.085460  2.085460 13.757564            0           0           0  
      4.174556  0.000000 13.759138            0           0           0  
      2.087278  4.174556  7.500000            0           0           0  
      4.174556  6.261834  7.500000            0           0           0  
      2.087278  6.261834  9.587278            0           0           0  
      4.174556  4.174556  9.587278            0           0           0  
      2.090494  4.174556 11.690798            0           0           0  
      4.174556  6.258618 11.690798            0           0           0  
      2.085460  6.263651 13.757564            0           0           0  
      4.174556  4.174556 13.809062            0           0           0  
      6.261834  0.000000  7.500000            0           0           0  
      0.000000  2.087278  7.500000            0           0           0  
      6.261834  2.087278  9.587278            0           0           0  
      0.000000  0.000000  9.587278            0           0           0  
      6.260776  0.000000 11.685643            0           0           0  
      0.000000  2.088336 11.685643            0           0           0  
      6.263651  2.085460 13.757564            0           0           0  
      0.000000  0.000000 13.759480            0           0           0  
      6.261834  4.174556  7.500000            0           0           0  
      0.000000  6.261834  7.500000            0           0           0  
      6.261834  6.261834  9.587278            0           0           0  
      0.000000  4.174556  9.587278            0           0           0  
      6.258618  4.174556 11.690798            0           0           0  
      0.000000  6.260776 11.685643            0           0           0  
      6.263651  6.263651 13.757564            0           0           0  
      0.000000  4.174556 13.759138            0           0           0  
      2.087278  0.000000  9.587278            0           0           0  
      4.174556  2.087278  9.587278            0           0           0  
      2.087278  2.087278  7.500000            0           0           0  
      4.174556  0.000000  7.500000            0           0           0  
      2.085420  0.000000 13.809872            0           0           0  
      4.174556  2.077627 13.812106            0           0           0  
      2.087320  2.087320 11.681221            0           0           0  
      4.174556  0.000000 11.679847            0           0           0  
      2.087278  4.174556  9.587278            0           0           0  
      4.174556  6.261834  9.587278            0           0           0  
      2.087278  6.261834  7.500000            0           0           0  
      4.174556  4.174556  7.500000            0           0           0  
      2.077627  4.174556 13.812106            0           0           0  
      4.174556  6.271484 13.812106            0           0           0  
      2.087320  6.261791 11.681221            0           0           0  
      4.174556  4.174556 11.691087            0           0           0  
      6.261834  0.000000  9.587278            0           0           0  
      0.000000  2.087278  9.587278            0           0           0  
      6.261834  2.087278  7.500000            0           0           0  
      0.000000  0.000000  7.500000            0           0           0  
      6.263692  0.000000 13.809872            0           0           0  
      0.000000  2.085420 13.809872            0           0           0  
      6.261791  2.087320 11.681221            0           0           0  
      0.000000  0.000000 11.679403            0           0           0  
      6.261834  4.174556  9.587278            0           0           0  
      0.000000  6.261834  9.587278            0           0           0  
      6.261834  6.261834  7.500000            0           0           0  
      0.000000  4.174556  7.500000            0           0           0  
      6.271484  4.174556 13.812106            0           0           0  
      0.000000  6.263692 13.809872            0           0           0  
      6.261791  6.261791 11.681221            0           0           0  
      0.000000  4.174556 11.679847            0           0           0  

   5 f/i=    0.303858 THz     1.909194 2PiTHz   10.135600 cm-1     1.256654 meV
             X         Y         Z           dx          dy          dz
      4.174556  4.174556 16.285515     0.303519   -0.216925   -0.002965  
      4.174556  4.174556 17.415316     0.754462   -0.539987   -0.003457  
      2.087278  0.000000  7.500000            0           0           0  
      4.174556  2.087278  7.500000            0           0           0  
      2.087278  2.087278  9.587278            0           0           0  
      4.174556  0.000000  9.587278            0           0           0  
      2.088336  0.000000 11.685643            0           0           0  
      4.174556  2.090494 11.690798            0           0           0  
      2.085460  2.085460 13.757564            0           0           0  
      4.174556  0.000000 13.759138            0           0           0  
      2.087278  4.174556  7.500000            0           0           0  
      4.174556  6.261834  7.500000            0           0           0  
      2.087278  6.261834  9.587278            0           0           0  
      4.174556  4.174556  9.587278            0           0           0  
      2.090494  4.174556 11.690798            0           0           0  
      4.174556  6.258618 11.690798            0           0           0  
      2.085460  6.263651 13.757564            0           0           0  
      4.174556  4.174556 13.809062            0           0           0  
      6.261834  0.000000  7.500000            0           0           0  
      0.000000  2.087278  7.500000            0           0           0  
      6.261834  2.087278  9.587278            0           0           0  
      0.000000  0.000000  9.587278            0           0           0  
      6.260776  0.000000 11.685643            0           0           0  
      0.000000  2.088336 11.685643            0           0           0  
      6.263651  2.085460 13.757564            0           0           0  
      0.000000  0.000000 13.759480            0           0           0  
      6.261834  4.174556  7.500000            0           0           0  
      0.000000  6.261834  7.500000            0           0           0  
      6.261834  6.261834  9.587278            0           0           0  
      0.000000  4.174556  9.587278            0           0           0  
      6.258618  4.174556 11.690798            0           0           0  
      0.000000  6.260776 11.685643            0           0           0  
      6.263651  6.263651 13.757564            0           0           0  
      0.000000  4.174556 13.759138            0           0           0  
      2.087278  0.000000  9.587278            0           0           0  
      4.174556  2.087278  9.587278            0           0           0  
      2.087278  2.087278  7.500000            0           0           0  
      4.174556  0.000000  7.500000            0           0           0  
      2.085420  0.000000 13.809872            0           0           0  
      4.174556  2.077627 13.812106            0           0           0  
      2.087320  2.087320 11.681221            0           0           0  
      4.174556  0.000000 11.679847            0           0           0  
      2.087278  4.174556  9.587278            0           0           0  
      4.174556  6.261834  9.587278            0           0           0  
      2.087278  6.261834  7.500000            0           0           0  
      4.174556  4.174556  7.500000            0           0           0  
      2.077627  4.174556 13.812106            0           0           0  
      4.174556  6.271484 13.812106            0           0           0  
      2.087320  6.261791 11.681221            0           0           0  
      4.174556  4.174556 11.691087            0           0           0  
      6.261834  0.000000  9.587278            0           0           0  
      0.000000  2.087278  9.587278            0           0           0  
      6.261834  2.087278  7.500000            0           0           0  
      0.000000  0.000000  7.500000            0           0           0  
      6.263692  0.000000 13.809872            0           0           0  
      0.000000  2.085420 13.809872            0           0           0  
      6.261791  2.087320 11.681221            0           0           0  
      0.000000  0.000000 11.679403            0           0           0  
      6.261834  4.174556  9.587278            0           0           0  
      0.000000  6.261834  9.587278            0           0           0  
      6.261834  6.261834  7.500000            0           0           0  
      0.000000  4.174556  7.500000            0           0           0  
      6.271484  4.174556 13.812106            0           0           0  
      0.000000  6.263692 13.809872            0           0           0  
      6.261791  6.261791 11.681221            0           0           0  
      0.000000  4.174556 11.679847            0           0           0  

   6 f/i=    0.576718 THz     3.623625 2PiTHz   19.237236 cm-1     2.385112 meV
             X         Y         Z           dx          dy          dz
      4.174556  4.174556 16.285515     0.218196    0.304613    0.003563  
      4.174556  4.174556 17.415316     0.539494    0.754001    0.004144  
      2.087278  0.000000  7.500000            0           0           0  
      4.174556  2.087278  7.500000            0           0           0  
      2.087278  2.087278  9.587278            0           0           0  
      4.174556  0.000000  9.587278            0           0           0  
      2.088336  0.000000 11.685643            0           0           0  
      4.174556  2.090494 11.690798            0           0           0  
      2.085460  2.085460 13.757564            0           0           0  
      4.174556  0.000000 13.759138            0           0           0  
      2.087278  4.174556  7.500000            0           0           0  
      4.174556  6.261834  7.500000            0           0           0  
      2.087278  6.261834  9.587278            0           0           0  
      4.174556  4.174556  9.587278            0           0           0  
      2.090494  4.174556 11.690798            0           0           0  
      4.174556  6.258618 11.690798            0           0           0  
      2.085460  6.263651 13.757564            0           0           0  
      4.174556  4.174556 13.809062            0           0           0  
      6.261834  0.000000  7.500000            0           0           0  
      0.000000  2.087278  7.500000            0           0           0  
      6.261834  2.087278  9.587278            0           0           0  
      0.000000  0.000000  9.587278            0           0           0  
      6.260776  0.000000 11.685643            0           0           0  
      0.000000  2.088336 11.685643            0           0           0  
      6.263651  2.085460 13.757564            0           0           0  
      0.000000  0.000000 13.759480            0           0           0  
      6.261834  4.174556  7.500000            0           0           0  
      0.000000  6.261834  7.500000            0           0           0  
      6.261834  6.261834  9.587278            0           0           0  
      0.000000  4.174556  9.587278            0           0           0  
      6.258618  4.174556 11.690798            0           0           0  
      0.000000  6.260776 11.685643            0           0           0  
      6.263651  6.263651 13.757564            0           0           0  
      0.000000  4.174556 13.759138            0           0           0  
      2.087278  0.000000  9.587278            0           0           0  
      4.174556  2.087278  9.587278            0           0           0  
      2.087278  2.087278  7.500000            0           0           0  
      4.174556  0.000000  7.500000            0           0           0  
      2.085420  0.000000 13.809872            0           0           0  
      4.174556  2.077627 13.812106            0           0           0  
      2.087320  2.087320 11.681221            0           0           0  
      4.174556  0.000000 11.679847            0           0           0  
      2.087278  4.174556  9.587278            0           0           0  
      4.174556  6.261834  9.587278            0           0           0  
      2.087278  6.261834  7.500000            0           0           0  
      4.174556  4.174556  7.500000            0           0           0  
      2.077627  4.174556 13.812106            0           0           0  
      4.174556  6.271484 13.812106            0           0           0  
      2.087320  6.261791 11.681221            0           0           0  
      4.174556  4.174556 11.691087            0           0           0  
      6.261834  0.000000  9.587278            0           0           0  
      0.000000  2.087278  9.587278            0           0           0  
      6.261834  2.087278  7.500000            0           0           0  
      0.000000  0.000000  7.500000            0           0           0  
      6.263692  0.000000 13.809872            0           0           0  
      0.000000  2.085420 13.809872            0           0           0  
      6.261791  2.087320 11.681221            0           0           0  
      0.000000  0.000000 11.679403            0           0           0  
      6.261834  4.174556  9.587278            0           0           0  
      0.000000  6.261834  9.587278            0           0           0  
      6.261834  6.261834  7.500000            0           0           0  
      0.000000  4.174556  7.500000            0           0           0  
      6.271484  4.174556 13.812106            0           0           0  
      0.000000  6.263692 13.809872            0           0           0  
      6.261791  6.261791 11.681221            0           0           0  
      0.000000  4.174556 11.679847            0           0           0  

 Finite differences POTIM=   3.5000000000000003E-002
     LOOP+:  cpu time   4124.1373: real time   4124.8468
    4ORBIT:  cpu time      0.0000: real time      0.0000

 total amount of memory used by VASP MPI-rank0   253298. kBytes
=======================================================================

   base      :      30000. kBytes
   nonl-proj :      16885. kBytes
   fftplans  :       7989. kBytes
   grid      :       8190. kBytes
   one-center:         73. kBytes
   HF        :        101. kBytes
   nonlr-proj:      62623. kBytes
   wavefun   :       6081. kBytes
   fock_wrk  :     121356. kBytes

  
  
 General timing and accounting informations for this job:
 ========================================================
  
                  Total CPU time used (sec):    56172.527
                            User time (sec):    56064.529
                          System time (sec):      108.000
                         Elapsed time (sec):    56196.587
  
                   Maximum memory used (kb):      453664.
                   Average memory used (kb):          N/A
  
                          Minor page faults:      2239779
                          Major page faults:           54
                 Voluntary context switches:        38390
