 vasp.6.3.0 20Jan22 (build Mar 06 2023 08:24:33) complex                        
  
 executed on             LinuxIFC date 2023.04.05  16:36:35
 running on  384 total cores
 distrk:  each k-point on  384 cores,    1 groups
 distr:  one band on NCORE=   4 cores,   96 groups


--------------------------------------------------------------------------------------------------------


 INCAR:
   ENCUT = 500
   SIGMA = 0.0001
   EDIFF = 1E-4
   LHFCALC = .TRUE.
   AEXX = 1.0
   ALGO = C
   NCORE = 4

 POTCAR:    PAW_PBE C_GW 28Sep2005                
 POTCAR:    PAW_PBE Mg_pv_GW 20Apr2010            
 POTCAR:    PAW_PBE O_GW_new 19Mar2012            
 -----------------------------------------------------------------------------
|                                                                             |
|           W    W    AA    RRRRR   N    N  II  N    N   GGGG   !!!           |
|           W    W   A  A   R    R  NN   N  II  NN   N  G    G  !!!           |
|           W    W  A    A  R    R  N N  N  II  N N  N  G       !!!           |
|           W WW W  AAAAAA  RRRRR   N  N N  II  N  N N  G  GGG   !            |
|           WW  WW  A    A  R   R   N   NN  II  N   NN  G    G                |
|           W    W  A    A  R    R  N    N  II  N    N   GGGG   !!!           |
|                                                                             |
|     For optimal performance we recommend to set                             |
|       NCORE = 2 up to number-of-cores-per-socket                            |
|     NCORE specifies how many cores store one orbital (NPAR=cpu/NCORE).      |
|     This setting can greatly improve the performance of VASP for DFT.       |
|     The default, NCORE=1 might be grossly inefficient on modern             |
|     multi-core architectures or massively parallel machines. Do your        |
|     own testing! More info at https://www.vasp.at/wiki/index.php/NCORE      |
|     Unfortunately you need to use the default for GW and RPA                |
|     calculations (for HF NCORE is supported but not extensively tested      |
|     yet).                                                                   |
|                                                                             |
 -----------------------------------------------------------------------------

 POTCAR:    PAW_PBE C_GW 28Sep2005                
   SHA256 =  2c64eee1059aeb37bcbfbbf93191b6229a866e6b7fb7be04c2badc02647cde23 C_GW/POTCAR           
   COPYR  = (c) Copyright 28Sep2005 Georg Kresse                                                    
   COPYR  = This file is part of the software VASP. Any use, copying, and all other rights are regul
   COPYR  = If you do not have a valid VASP license, you may not use, copy or distribute this file. 
   VRHFIN =C: s2p2                                                                                  
   LEXCH  = PE                                                                                      
   EATOM  =   147.1560 eV,   10.8157 Ry                                                             
                                                                                                    
   TITEL  = PAW_PBE C_GW 28Sep2005                                                                  
   LULTRA =        F    use ultrasoft PP ?                                                          
   IUNSCR =        0    unscreen: 0-lin 1-nonlin 2-no                                               
   RPACOR =    0.000    partial core radius                                                         
   POMASS =   12.011; ZVAL   =    4.000    mass and valenz                                          
   RCORE  =    1.500    outmost cutoff radius                                                       
   RWIGS  =    1.630; RWIGS  =    0.863    wigner-seitz radius (au A)                               
   ENMAX  =  413.992; ENMIN  =  310.494 eV                                                          
   ICORE  =        2    local potential                                                             
   LCOR   =        T    correct aug charges                                                         
   LPAW   =        T    paw PP                                                                      
   EAUG   =  644.873                                                                                
   DEXC   =    0.000                                                                                
   RMAX   =    1.529    core radius for proj-oper                                                   
   RAUG   =    1.300    factor for augmentation sphere                                              
   RDEP   =    1.501    radius for radial grids                                                     
   RDEPT  =    1.300    core radius for aug-charge                                                  
                                                                                                    
   Atomic configuration                                                                             
    4 entries                                                                                       
     n  l   j            E        occ.                                                              
     1  0  0.50      -273.3789   2.0000                                                             
     2  0  0.50       -13.7508   2.0000                                                             
     2  1  0.50        -5.2854   2.0000                                                             
     3  2  1.50        -5.4423   0.0000                                                             
   Description                                                                                      
     l       E           TYP  RCUT    TYP  RCUT                                                     
     0    -13.7508457     23  1.200                                                                 
     0     95.2407820     23  1.200                                                                 
     1     -5.2854382     23  1.500                                                                 
     1    108.8466080     23  1.500                                                                 
     2     -5.4423304      7  1.500                                                                 
  local pseudopotential read in
  kinetic energy density of atom read in
  atomic valenz-charges read in
  non local Contribution for L=           0  read in
    real space projection operators read in
  non local Contribution for L=           0  read in
    real space projection operators read in
  non local Contribution for L=           1  read in
    real space projection operators read in
  non local Contribution for L=           1  read in
    real space projection operators read in
    PAW grid and wavefunctions read in
 
   number of l-projection  operators is LMAX  =           4
   number of lm-projection operators is LMMAX =           8
 
 POTCAR:    PAW_PBE Mg_pv_GW 20Apr2010            
   SHA256 =  5739f08330ef6d26412aa87e74e015bb45abc7fed99ee257d36c3bd364af7e1f Mg_pv_GW/POTCAR       
   COPYR  = (c) Copyright 20Apr2010 Georg Kresse                                                    
   COPYR  = This file is part of the software VASP. Any use, copying, and all other rights are regul
   COPYR  = If you do not have a valid VASP license, you may not use, copy or distribute this file. 
   VRHFIN =Mg: p6s2                                                                                 
   LEXCH  = PE                                                                                      
   EATOM  =  1056.7344 eV,   77.6678 Ry                                                             
                                                                                                    
   TITEL  = PAW_PBE Mg_pv_GW 20Apr2010                                                              
   LULTRA =        F    use ultrasoft PP ?                                                          
   IUNSCR =        1    unscreen: 0-lin 1-nonlin 2-no                                               
   RPACOR =    1.500    partial core radius                                                         
   POMASS =   24.305; ZVAL   =    8.000    mass and valenz                                          
   RCORE  =    2.000    outmost cutoff radius                                                       
   RWIGS  =    2.000; RWIGS  =    1.058    wigner-seitz radius (au A)                               
   ENMAX  =  403.929; ENMIN  =  302.947 eV                                                          
   RCLOC  =    1.506    cutoff for local pot                                                        
   LCOR   =        T    correct aug charges                                                         
   LPAW   =        T    paw PP                                                                      
   EAUG   =  758.780                                                                                
   DEXC   =    0.000                                                                                
   RMAX   =    2.045    core radius for proj-oper                                                   
   RAUG   =    1.300    factor for augmentation sphere                                              
   RDEP   =    2.025    radius for radial grids                                                     
   RDEPT  =    1.557    core radius for aug-charge                                                  
                                                                                                    
   Atomic configuration                                                                             
    5 entries                                                                                       
     n  l   j            E        occ.                                                              
     1  0  0.50     -1259.6230   2.0000                                                             
     2  0  0.50       -79.8442   2.0000                                                             
     2  1  1.50       -46.6121   6.0000                                                             
     3  0  0.50        -4.7055   2.0000                                                             
     3  2  1.50        -1.3606   0.0000                                                             
   Description                                                                                      
     l       E           TYP  RCUT    TYP  RCUT                                                     
     1    -46.6121068     23  1.600                                                                 
     1    -47.9726894     23  1.600                                                                 
     1     81.6349560     23  1.800                                                                 
     0     -4.7054661     23  2.000                                                                 
     0     68.0291300     23  2.000                                                                 
     2     40.8174780     23  1.800                                                                 
  local pseudopotential read in
  partial core-charges read in
  partial kinetic energy density read in
  kinetic energy density of atom read in
  atomic valenz-charges read in
  non local Contribution for L=           1  read in
    real space projection operators read in
  non local Contribution for L=           1  read in
    real space projection operators read in
  non local Contribution for L=           1  read in
    real space projection operators read in
  non local Contribution for L=           0  read in
    real space projection operators read in
  non local Contribution for L=           0  read in
    real space projection operators read in
  non local Contribution for L=           2  read in
    real space projection operators read in
    PAW grid and wavefunctions read in
 
   number of l-projection  operators is LMAX  =           6
   number of lm-projection operators is LMMAX =          16
 
 POTCAR:    PAW_PBE O_GW_new 19Mar2012            
   SHA256 =  c493eb4e480bc193c6922e0b8c73e7a108f48fca6e73afddd92a880a1c2b3374 O_GW_new/POTCAR       
   COPYR  = (c) Copyright 19Mar2012 Georg Kresse                                                    
   COPYR  = This file is part of the software VASP. Any use, copying, and all other rights are regul
   COPYR  = If you do not have a valid VASP license, you may not use, copy or distribute this file. 
   VRHFIN =O: s2p4                                                                                  
   LEXCH  = PE                                                                                      
   EATOM  =   432.3788 eV,   31.7789 Ry                                                             
                                                                                                    
   TITEL  = PAW_PBE O_GW_new 19Mar2012                                                              
   LULTRA =        F    use ultrasoft PP ?                                                          
   IUNSCR =        1    unscreen: 0-lin 1-nonlin 2-no                                               
   RPACOR =    0.800    partial core radius                                                         
   POMASS =   16.000; ZVAL   =    6.000    mass and valenz                                          
   RCORE  =    1.600    outmost cutoff radius                                                       
   RWIGS  =    1.600; RWIGS  =    0.847    wigner-seitz radius (au A)                               
   ENMAX  =  434.431; ENMIN  =  325.824 eV                                                          
   ICORE  =        3    local potential                                                             
   LCOR   =        T    correct aug charges                                                         
   LPAW   =        T    paw PP                                                                      
   EAUG   = 1139.609                                                                                
   DEXC   =    0.000                                                                                
   RMAX   =    1.629    core radius for proj-oper                                                   
   RAUG   =    1.300    factor for augmentation sphere                                              
   RDEP   =    1.652    radius for radial grids                                                     
   RDEPT  =    1.200    core radius for aug-charge                                                  
                                                                                                    
   Atomic configuration                                                                             
    5 entries                                                                                       
     n  l   j            E        occ.                                                              
     1  0  0.50      -514.6923   2.0000                                                             
     2  0  0.50       -23.9615   2.0000                                                             
     2  1  0.50        -9.0305   4.0000                                                             
     3  2  1.50        -9.5241   0.0000                                                             
     4  3  2.50        -9.5241   0.0000                                                             
   Description                                                                                      
     l       E           TYP  RCUT    TYP  RCUT                                                     
     0    -23.9615316     23  1.150                                                                 
     0    -25.3221142     23  1.150                                                                 
     0    244.9048680     23  1.300                                                                 
     1     -9.0304908     23  1.500                                                                 
     1     -6.9258396     23  1.500                                                                 
     1    122.4524340     23  1.500                                                                 
     2     13.6058260     23  1.500                                                                 
     2    190.4815640     23  1.600                                                                 
     3     54.4233040     23  1.400                                                                 
  local pseudopotential read in
  partial core-charges read in
  partial kinetic energy density read in
  kinetic energy density of atom read in
  atomic valenz-charges read in
  non local Contribution for L=           0  read in
    real space projection operators read in
  non local Contribution for L=           0  read in
    real space projection operators read in
  non local Contribution for L=           0  read in
    real space projection operators read in
  non local Contribution for L=           1  read in
    real space projection operators read in
  non local Contribution for L=           1  read in
    real space projection operators read in
  non local Contribution for L=           1  read in
    real space projection operators read in
  non local Contribution for L=           2  read in
    real space projection operators read in
  non local Contribution for L=           2  read in
    real space projection operators read in
    PAW grid and wavefunctions read in
 
   number of l-projection  operators is LMAX  =           8
   number of lm-projection operators is LMMAX =          22
 
 -----------------------------------------------------------------------------
|                                                                             |
|               ----> ADVICE to this user running VASP <----                  |
|                                                                             |
|     You have a (more or less) 'large supercell' and for larger cells it     |
|     might be more efficient to use real-space projection operators.         |
|     Therefore, try LREAL= Auto in the INCAR file.                           |
|     Mind: For very accurate calculation, you might also keep the            |
|     reciprocal projection scheme (i.e. LREAL=.FALSE.).                      |
|                                                                             |
 -----------------------------------------------------------------------------

  PAW_PBE C_GW 28Sep2005                :
 energy of atom  1       EATOM= -147.1560
 kinetic energy error for atom=    0.0076 (will be added to EATOM!!)
  PAW_PBE Mg_pv_GW 20Apr2010            :
 energy of atom  2       EATOM=-1056.7344
 kinetic energy error for atom=    0.0347 (will be added to EATOM!!)
  PAW_PBE O_GW_new 19Mar2012            :
 energy of atom  3       EATOM= -432.3788
 kinetic energy error for atom=    0.0278 (will be added to EATOM!!)
 
 
 POSCAR:  C  O Mg  O
  positions in direct lattice
  No initial velocities read in
 exchange correlation table for  LEXCH =        8
   RHO(1)=    0.500       N(1)  =     2000
   RHO(2)=  100.500       N(2)  =     4000
 


--------------------------------------------------------------------------------------------------------


 ion  position               nearest neighbor table
   1  0.500  0.500  0.694-  34 1.15
   2  0.000  0.750  0.253-  24 2.11  21 2.11  29 2.11  20 2.11  18 2.15
   3  0.250  0.000  0.253-  28 2.11  25 2.11  21 2.11  20 2.11  19 2.15
   4  0.000  0.000  0.350-  18 2.11  19 2.11  22 2.11  27 2.11  20 2.11
   5  0.250  0.750  0.350-  21 2.11  19 2.11  18 2.11  23 2.11  26 2.11
   6  0.000  0.250  0.253-  24 2.11  25 2.11  33 2.11  20 2.11  22 2.15
   7  0.250  0.500  0.253-  32 2.11  25 2.11  21 2.11  24 2.11  23 2.15
   8  0.000  0.500  0.350-  23 2.10  31 2.10  24 2.11  22 2.11  18 2.11
   9  0.250  0.250  0.350-  25 2.11  22 2.11  19 2.11  23 2.11  30 2.11
  10  0.500  0.750  0.253-  32 2.11  29 2.11  21 2.11  28 2.11  26 2.15
  11  0.750  0.000  0.253-  28 2.11  29 2.11  33 2.11  20 2.11  27 2.15
  12  0.500  0.000  0.350-  26 2.10  30 2.10  28 2.11  19 2.11  27 2.11
  13  0.750  0.750  0.350-  29 2.11  27 2.11  18 2.11  26 2.11  31 2.11
  14  0.500  0.250  0.253-  32 2.11  25 2.11  33 2.11  28 2.11  30 2.15
  15  0.750  0.500  0.253-  32 2.11  29 2.11  33 2.11  24 2.11  31 2.15
  16  0.500  0.500  0.352-  23 2.12  26 2.12  30 2.12  31 2.12  32 2.14
  17  0.750  0.250  0.350-  33 2.11  27 2.11  22 2.11  31 2.11  30 2.11
  18  0.000  0.750  0.352-   4 2.11   5 2.11  13 2.11   8 2.11   2 2.15
  19  0.250  0.000  0.352-   4 2.11   5 2.11   9 2.11  12 2.11   3 2.15
  20  0.000  0.000  0.253-   4 2.11   3 2.11   2 2.11   6 2.11  11 2.11
  21  0.250  0.750  0.253-   5 2.11   3 2.11   2 2.11   7 2.11  10 2.11
  22  0.000  0.250  0.352-   4 2.11   9 2.11  17 2.11   8 2.11   6 2.15
  23  0.249  0.500  0.352-   8 2.10   5 2.11   9 2.11  16 2.12   7 2.15
  24  0.000  0.500  0.253-   8 2.11   6 2.11   2 2.11   7 2.11  15 2.11
  25  0.250  0.250  0.253-   9 2.11   6 2.11   3 2.11   7 2.11  14 2.11
  26  0.500  0.751  0.352-  12 2.10   5 2.11  13 2.11  16 2.12  10 2.15
  27  0.750  0.000  0.352-   4 2.11  13 2.11  17 2.11  12 2.11  11 2.15
  28  0.500  0.000  0.253-  12 2.11  11 2.11   3 2.11  10 2.11  14 2.11
  29  0.750  0.750  0.253-  13 2.11  11 2.11   2 2.11  10 2.11  15 2.11
  30  0.500  0.249  0.352-  12 2.10   9 2.11  17 2.11  16 2.12  14 2.15
  31  0.751  0.500  0.352-   8 2.10  13 2.11  17 2.11  16 2.12  15 2.15
  32  0.500  0.500  0.253-   7 2.11  10 2.11  14 2.11  15 2.11  16 2.14
  33  0.750  0.250  0.253-  17 2.11  11 2.11   6 2.11  15 2.11  14 2.11
  34  0.500  0.500  0.747-   1 1.15
 
  LATTYP: Found a simple tetragonal cell.
 ALAT       =     8.4409846542
 C/A-ratio  =     2.5754268781
  
  Lattice vectors:
  
 A1 = (   8.4409846542,   0.0000000000,   0.0000000000)
 A2 = (   0.0000000000,   8.4409846542,   0.0000000000)
 A3 = (   0.0000000000,   0.0000000000,  21.7391387558)


Analysis of symmetry for initial positions (statically):
=====================================================================
 Subroutine PRICEL returns:
 Original cell was already a primitive cell.
 

 Routine SETGRP: Setting up the symmetry group for a 
 simple tetragonal supercell.


 Subroutine GETGRP returns: Found  8 space group operations
 (whereof  8 operations were pure point group operations)
 out of a pool of 16 trial point group operations.


The static configuration has the point symmetry C_4v.


Analysis of symmetry for dynamics (positions and initial velocities):
=====================================================================
 Subroutine PRICEL returns:
 Original cell was already a primitive cell.
 

 Routine SETGRP: Setting up the symmetry group for a 
 simple tetragonal supercell.


 Subroutine GETGRP returns: Found  8 space group operations
 (whereof  8 operations were pure point group operations)
 out of a pool of 16 trial point group operations.


The dynamic configuration has the point symmetry C_4v.


 Subroutine INISYM returns: Found  8 space group operations
 (whereof  8 operations are pure point group operations),
 and found     1 'primitive' translations


----------------------------------------------------------------------------------------

                                     Primitive cell                                     

  volume of cell :    1548.9185

  direct lattice vectors                    reciprocal lattice vectors
     8.440984654  0.000000000  0.000000000     0.118469591  0.000000000  0.000000000
     0.000000000  8.440984654  0.000000000     0.000000000  0.118469591  0.000000000
     0.000000000  0.000000000 21.739138756     0.000000000  0.000000000  0.045999982

  length of vectors
     8.440984654  8.440984654 21.739138756     0.118469591  0.118469591  0.045999982

  position of ions in fractional coordinates (direct lattice)
     0.500000000  0.500000000  0.694246406
     0.000000000  0.749939268  0.253314454
     0.250060732  0.000000000  0.253314454
     0.000000000  0.000000000  0.350123019
     0.249858327  0.750141673  0.349950559
     0.000000000  0.250060732  0.253314454
     0.250378379  0.500000000  0.253448179
     0.000000000  0.500000000  0.349995433
     0.249858327  0.249858327  0.349950559
     0.500000000  0.749621621  0.253448179
     0.749939268  0.000000000  0.253314454
     0.500000000  0.000000000  0.349995433
     0.750141673  0.750141673  0.349950559
     0.500000000  0.250378379  0.253448179
     0.749621621  0.500000000  0.253448179
     0.500000000  0.500000000  0.351959508
     0.750141673  0.249858327  0.349950559
     0.000000000  0.750218533  0.352314997
     0.249781467  0.000000000  0.352314997
     0.000000000  0.000000000  0.253046241
     0.249945770  0.750054230  0.253094539
     0.000000000  0.249781467  0.352314997
     0.248822710  0.500000000  0.352220424
     0.000000000  0.500000000  0.252999903
     0.249945770  0.249945770  0.253094539
     0.500000000  0.751177290  0.352220424
     0.750218533  0.000000000  0.352314997
     0.500000000  0.000000000  0.252999903
     0.750054230  0.750054230  0.253094539
     0.500000000  0.248822710  0.352220424
     0.751177290  0.500000000  0.352220424
     0.500000000  0.500000000  0.253459789
     0.750054230  0.249945770  0.253094539
     0.500000000  0.500000000  0.747000097

  ion indices of the primitive-cell ions
   primitive index   ion index
                 1           1
                 2           2
                 3           3
                 4           4
                 5           5
                 6           6
                 7           7
                 8           8
                 9           9
                10          10
                11          11
                12          12
                13          13
                14          14
                15          15
                16          16
                17          17
                18          18
                19          19
                20          20
                21          21
                22          22
                23          23
                24          24
                25          25
                26          26
                27          27
                28          28
                29          29
                30          30
                31          31
                32          32
                33          33
                34          34

----------------------------------------------------------------------------------------

 
 
 KPOINTS: Automatically generated mesh            

Automatic generation of k-mesh.
 Grid dimensions read from file:
 generate k-points for:    2    2    1

 Generating k-lattice:

  Cartesian coordinates                     Fractional coordinates (reciprocal lattice)
     0.059234796  0.000000000  0.000000000     0.500000000  0.000000000  0.000000000
     0.000000000  0.059234796  0.000000000     0.000000000  0.500000000  0.000000000
     0.000000000  0.000000000  0.045999982     0.000000000  0.000000000  1.000000000

  Length of vectors
     0.059234796  0.059234796  0.045999982

  Shift w.r.t. Gamma in fractional coordinates (k-lattice)
     0.000000000  0.000000000  0.000000000

 
 Subroutine IBZKPT returns following result:
 ===========================================
 
 Found      3 irreducible k-points:
 
 Following reciprocal coordinates:
            Coordinates               Weight
  0.000000  0.000000  0.000000      1.000000
  0.500000  0.000000  0.000000      2.000000
  0.500000  0.500000  0.000000      1.000000
 
 Following cartesian coordinates:
            Coordinates               Weight
  0.000000  0.000000  0.000000      1.000000
  0.059235  0.000000  0.000000      2.000000
  0.059235  0.059235  0.000000      1.000000
 
 
 Subroutine IBZKPT_HF returns following result:
 ==============================================
 
 Found      4 k-points in 1st BZ
 the following      4 k-points will be used (e.g. in the exchange kernel)
 Following reciprocal coordinates:   # in IRBZ
  0.000000  0.000000  0.000000    0.25000000   1 t-inv F
  0.500000  0.000000  0.000000    0.25000000   2 t-inv F
  0.500000  0.500000  0.000000    0.25000000   3 t-inv F
  0.000000  0.500000  0.000000    0.25000000   2 t-inv F


--------------------------------------------------------------------------------------------------------




 Dimension of arrays:
   k-points           NKPTS =      3   k-points in BZ     NKDIM =      4   number of bands    NBANDS=    192
   number of dos      NEDOS =    301   number of ions     NIONS =     34
   non local maximal  LDIM  =      8   non local SUM 2l+1 LMDIM =     22
   total plane-waves  NPLWV = 276480
   max r-space proj   IRMAX =      1   max aug-charges    IRDMAX=   3717
   dimension x,y,z NGX =    48 NGY =   48 NGZ =  120
   dimension x,y,z NGXF=    96 NGYF=   96 NGZF=  240
   support grid    NGXF=    96 NGYF=   96 NGZF=  240
   ions per type =               1  16  17
   NGX,Y,Z   is equivalent  to a cutoff of   9.45,  9.45,  9.18 a.u.
   NGXF,Y,Z  is equivalent  to a cutoff of  18.91, 18.91, 18.35 a.u.

 SYSTEM =  unknown system                          
 POSCAR =   C  O Mg  O                             

 Startparameter for this run:
   NWRITE =      2    write-flag & timer
   PREC   = normal    normal or accurate (medium, high low for compatibility)
   ISTART =      0    job   : 0-new  1-cont  2-samecut
   ICHARG =      2    charge: 1-file 2-atom 10-const
   ISPIN  =      1    spin polarized calculation?
   LNONCOLLINEAR =      F non collinear calculations
   LSORBIT =      F    spin-orbit coupling
   INIWAV =      1    electr: 0-lowe 1-rand  2-diag
   LASPH  =      F    aspherical Exc in radial PAW
 Electronic Relaxation 1
   ENCUT  =  500.0 eV  36.75 Ry    6.06 a.u.  15.39 15.39 39.64*2*pi/ulx,y,z
   ENINI  =  500.0     initial cutoff
   ENAUG  = 1139.6 eV  augmentation charge cutoff
   NELM   =     60;   NELMIN=  2; NELMDL= -5     # of ELM steps 
   EDIFF  = 0.1E-03   stopping-criterion for ELM
   LREAL  =      F    real-space projection
   NLSPLINE    = F    spline interpolate recip. space projectors
   LCOMPAT=      F    compatible to vasp.4.4
   GGA_COMPAT  = T    GGA compatible to vasp.4.4-vasp.4.6
   LMAXPAW     = -100 max onsite density
   LMAXMIX     =    2 max onsite mixed and CHGCAR
   VOSKOWN=      0    Vosko Wilk Nusair interpolation
   ROPT   =    0.00000   0.00000   0.00000
 Ionic relaxation
   EDIFFG = 0.1E-02   stopping-criterion for IOM
   NSW    =      0    number of steps for IOM
   NBLOCK =      1;   KBLOCK =      1    inner block; outer block 
   IBRION =     -1    ionic relax: 0-MD 1-quasi-New 2-CG
   NFREE  =      0    steps in history (QN), initial steepest desc. (CG)
   ISIF   =      0    stress and relaxation
   IWAVPR =     10    prediction:  0-non 1-charg 2-wave 3-comb
   ISYM   =      3    0-nonsym 1-usesym 2-fastsym
   LCORR  =      T    Harris-Foulkes like correction to forces

   POTIM  = 0.5000    time-step for ionic-motion
   TEIN   =    0.0    initial temperature
   TEBEG  =    0.0;   TEEND  =   0.0 temperature during run
   SMASS  =  -3.00    Nose mass-parameter (am)
   estimated Nose-frequenzy (Omega)   =  0.10E-29 period in steps = 0.13E+47 mass=  -0.163E-26a.u.
   SCALEE = 1.0000    scale energy and forces
   NPACO  =    256;   APACO  = 10.0  distance and # of slots for P.C.
   PSTRESS=    0.0 pullay stress

  Mass of Ions in am
   POMASS =  12.01 24.30 16.00
  Ionic Valenz
   ZVAL   =   4.00  8.00  6.00
  Atomic Wigner-Seitz radii
   RWIGS  =  -1.00 -1.00 -1.00
  virtual crystal weights 
   VCA    =   1.00  1.00  1.00
   NELECT =     234.0000    total number of electrons
   NUPDOWN=      -1.0000    fix difference up-down

 DOS related values:
   EMIN   =  10.00;   EMAX   =-10.00  energy-range for DOS
   EFERMI =   0.00
   ISMEAR =     1;   SIGMA  =   0.00  broadening in eV -4-tet -1-fermi 0-gaus

 Electronic relaxation 2 (details)
   IALGO  =     58    algorithm
   LDIAG  =      T    sub-space diagonalisation (order eigenvalues)
   LSUBROT=      F    optimize rotation matrix (better conditioning)
   TURBO    =      0    0=normal 1=particle mesh
   IRESTART =      0    0=no restart 2=restart with 2 vectors
   NREBOOT  =      0    no. of reboots
   NMIN     =      0    reboot dimension
   EREF     =   0.00    reference energy to select bands
   IMIX   =      4    mixing-type and parameters
     AMIX     =   0.40;   BMIX     =  1.00
     AMIX_MAG =   1.60;   BMIX_MAG =  1.00
     AMIN     =   0.10
     WC   =   100.;   INIMIX=   1;  MIXPRE=   1;  MAXMIX= -45

 Intra band minimization:
   WEIMIN = 0.0000     energy-eigenvalue tresh-hold
   EBREAK =  0.13E-06  absolut break condition
   DEPER  =   0.30     relativ break condition  

   TIME   =   0.40     timestep for ELM

  volume/ion in A,a.u.               =      45.56       307.43
  Fermi-wavevector in a.u.,A,eV,Ry     =   0.871908  1.647667 10.343466  0.760223
  Thomas-Fermi vector in A             =   1.991082
 
 Write flags
   LWAVE        =      T    write WAVECAR
   LDOWNSAMPLE  =      F    k-point downsampling of WAVECAR
   LCHARG       =      T    write CHGCAR
   LVTOT        =      F    write LOCPOT, total local potential
   LVHAR        =      F    write LOCPOT, Hartree potential only
   LELF         =      F    write electronic localiz. function (ELF)
   LORBIT       =      0    0 simple, 1 ext, 2 COOP (PROOUT), +10 PAW based schemes


 Dipole corrections
   LMONO  =      F    monopole corrections only (constant potential shift)
   LDIPOL =      F    correct potential (dipole corrections)
   IDIPOL =      0    1-x, 2-y, 3-z, 4-all directions 
   EPSILON=  1.0000000 bulk dielectric constant

 Exchange correlation treatment:
   GGA     =    --    GGA type
   LEXCH   =     8    internal setting for exchange type
   LIBXC   =     F    Libxc                    
   VOSKOWN =     0    Vosko Wilk Nusair interpolation
   EXXOEP  =     0    0=HF, 1=EXX-LHF (local Hartree Fock) 2=EXX OEP
   LHFCALC =     T    Hartree Fock is set to
   LSYMGRAD=     F    symmetrize gradient (conserves proper symmetry)
   PRECFOCK=normal    Normal, Fast or Accurate (Low or Medium for compatibility)
   LRHFCALC=     F    long range Hartree Fock
   LRSCOR  =     F    long range correlation only (use DFT for short range part)
   LTHOMAS =     F    Thomas Fermi screening in HF
   LMODELHF=     F    short range full HF, long range fraction AEXX
   LFOCKACE=     T    use Adeptively-Compressed-Exchange operator
   ENCUT4O =  -1.0   cutoff for four orbital integrals eV
   LMAXFOCK=     4    L truncation for augmentation on plane wave grid
   LMAXFOCKAE=  -1    L truncation for all-electron charge restoration on plane wave grid
   NMAXFOCKAE=   1    number of basis functions for all-electron charge restoration
   LFOCKAEDFT=     F  apply the AE augmentation even for DFT
   NKREDX  =     1    reduce k-point grid by
   NKREDY  =     1    reduce k-point grid by
   NKREDZ  =     1    reduce k-point grid by
   SHIFTRED=     F    shift reduced grid of Gamma
   HFKIDENT=     F    idential grid for each k-point
   ODDONLY =     F    use only odd q-grid points
   EVENONLY=     F    use only even q-grid points
   HFALPHA =   -1.0000 decay constant for conv. correction
   MCALPHA =    0.0000 extent of test-charge in conv. correction in multipole expansion
   AEXX    =    1.0000 exact exchange contribution
   HFSCREEN=    0.0000 screening length (either q_TF or 0.3 A-1)
   HFSCREENC=   0.0000 screening length for correlation (either q_TF or 0.3 A-1)
   HFRCUT  =    0.0000 spherical cutoff for potential kernel
   HFRCUTSOFT=    0.0000 smooth spherical cutoff for potential kernel
   ERFCRAY_SCREEN=    0.0000 screening factor for erfc+rayleigh like screening for potential kernel
   RAYLEXP=    0.0000  rayleigh exponent in erfc+rayleigh like screening
   ALDAX   =    0.0000 LDA exchange part
   AGGAX   =    0.0000 GGA exchange part
   ALDAC   =    0.0000 LDA correlation
   AGGAC   =    0.0000 GGA correlation
   ENCUTFOCK=  -1.0 apply spherical cutoff to Coloumb kernel
   NBANDSGWLOW=     1    first orbital included in HF term
   NBLOCK_FOCK=    64    blocking factor in FOCK_ACC

 Linear response parameters
   LEPSILON=     F    determine dielectric tensor
   LRPA    =     F    only Hartree local field effects (RPA)
   LNABLA  =     F    use nabla operator in PAW spheres
   LVEL    =     F    velocity operator in full k-point grid
   CSHIFT  =0.1000    complex shift for real part using Kramers Kronig
   OMEGAMAX=  -1.0    maximum frequency
   DEG_THRESHOLD= 0.2000000E-02 threshold for treating states as degnerate
   RTIME   =   -0.100 relaxation time in fs
  (WPLASMAI=    0.000 imaginary part of plasma frequency in eV, 0.658/RTIME)
   DFIELD  = 0.0000000 0.0000000 0.0000000 field for delta impulse in time
 
  Optional k-point grid parameters
   LKPOINTS_OPT  =     F    use optional k-point grid
   KPOINTS_OPT_MODE=     1    mode for optional k-point grid
 
 Orbital magnetization related:
   ORBITALMAG=     F  switch on orbital magnetization
   LCHIMAG   =     F  perturbation theory with respect to B field
   DQ        =  0.001000  dq finite difference perturbation B field
   LLRAUG    =     F  two centre corrections for induced B field



--------------------------------------------------------------------------------------------------------


 Static calculation
 charge density and potential will be updated during run
 non-spin polarized calculation
 Conjugate gradient for all bands (Freysoldt, et al. PRB 79, 241103 (2009))
 preconditioned conjugated gradient                                        
 perform sub-space diagonalisation
    before iterative eigenvector-optimisation
 modified Broyden-mixing scheme, WC =      100.0
 initial mixing is a Kerker type mixing with AMIX =  0.4000 and BMIX =      1.0000
 Hartree-type preconditioning will be used
 using additional bands           75
 reciprocal scheme for non local part
 use partial core corrections
 no Harris-corrections to forces 
 use gradient corrections 
 use of overlap-Matrix (Vanderbilt PP)
 Methfessel and Paxton  Order N= 1 SIGMA  =   0.00


--------------------------------------------------------------------------------------------------------


  energy-cutoff  :      500.00
  volume of cell :     1548.92
      direct lattice vectors                 reciprocal lattice vectors
     8.440984654  0.000000000  0.000000000     0.118469591  0.000000000  0.000000000
     0.000000000  8.440984654  0.000000000     0.000000000  0.118469591  0.000000000
     0.000000000  0.000000000 21.739138756     0.000000000  0.000000000  0.045999982

  length of vectors
     8.440984654  8.440984654 21.739138756     0.118469591  0.118469591  0.045999982


 
 k-points in units of 2pi/SCALE and weight: Automatically generated mesh            
   0.00000000  0.00000000  0.00000000       0.250
   0.05923480  0.00000000  0.00000000       0.500
   0.05923480  0.05923480  0.00000000       0.250
 
 k-points in reciprocal lattice and weights: Automatically generated mesh            
   0.00000000  0.00000000  0.00000000       0.250
   0.50000000  0.00000000  0.00000000       0.500
   0.50000000  0.50000000  0.00000000       0.250
 
 position of ions in fractional coordinates (direct lattice) 
   0.50000000  0.50000000  0.69424641
   0.00000000  0.74993927  0.25331445
   0.25006073  0.00000000  0.25331445
   0.00000000  0.00000000  0.35012302
   0.24985833  0.75014167  0.34995056
   0.00000000  0.25006073  0.25331445
   0.25037838  0.50000000  0.25344818
   0.00000000  0.50000000  0.34999543
   0.24985833  0.24985833  0.34995056
   0.50000000  0.74962162  0.25344818
   0.74993927  0.00000000  0.25331445
   0.50000000  0.00000000  0.34999543
   0.75014167  0.75014167  0.34995056
   0.50000000  0.25037838  0.25344818
   0.74962162  0.50000000  0.25344818
   0.50000000  0.50000000  0.35195951
   0.75014167  0.24985833  0.34995056
   0.00000000  0.75021853  0.35231500
   0.24978147  0.00000000  0.35231500
   0.00000000  0.00000000  0.25304624
   0.24994577  0.75005423  0.25309454
   0.00000000  0.24978147  0.35231500
   0.24882271  0.50000000  0.35222042
   0.00000000  0.50000000  0.25299990
   0.24994577  0.24994577  0.25309454
   0.50000000  0.75117729  0.35222042
   0.75021853  0.00000000  0.35231500
   0.50000000  0.00000000  0.25299990
   0.75005423  0.75005423  0.25309454
   0.50000000  0.24882271  0.35222042
   0.75117729  0.50000000  0.35222042
   0.50000000  0.50000000  0.25345979
   0.75005423  0.24994577  0.25309454
   0.50000000  0.50000000  0.74700010
 
 position of ions in cartesian coordinates  (Angst):
   4.22049233  4.22049233 15.09231894
   0.00000000  6.33022585  5.50683807
   2.11075880  0.00000000  5.50683807
   0.00000000  0.00000000  7.61137288
   2.10905031  6.33193435  7.60762375
   0.00000000  2.11075880  5.50683807
   2.11344006  4.22049233  5.50974512
   0.00000000  4.22049233  7.60859928
   2.10905031  2.10905031  7.60762375
   4.22049233  6.32754460  5.50974512
   6.33022585  0.00000000  5.50683807
   4.22049233  0.00000000  7.60859928
   6.33193435  6.33193435  7.60762375
   4.22049233  2.11344006  5.50974512
   6.32754460  4.22049233  5.50974512
   4.22049233  4.22049233  7.65129658
   6.33193435  2.10905031  7.60762375
   0.00000000  6.33258312  7.65902460
   2.10840153  0.00000000  7.65902460
   0.00000000  0.00000000  5.50100734
   2.10978841  6.33119624  5.50205730
   0.00000000  2.10840153  7.65902460
   2.10030867  4.22049233  7.65696867
   0.00000000  4.22049233  5.50000000
   2.10978841  2.10978841  5.50205730
   4.22049233  6.34067598  7.65696867
   6.33258312  0.00000000  7.65902460
   4.22049233  0.00000000  5.50000000
   6.33119624  6.33119624  5.50205730
   4.22049233  2.10030867  7.65696867
   6.34067598  4.22049233  7.65696867
   4.22049233  4.22049233  5.50999753
   6.33119624  2.10978841  5.50205730
   4.22049233  4.22049233 16.23913876
 


--------------------------------------------------------------------------------------------------------


 k-point   1 :   0.0000 0.0000 0.0000  plane waves:   39459
 k-point   2 :   0.5000 0.0000 0.0000  plane waves:   39346
 k-point   3 :   0.5000 0.5000 0.0000  plane waves:   39220

 maximum and minimum number of plane-waves per node :      9875     9782

 maximum number of plane-waves:     39459
 maximum index in each direction: 
   IXMAX=   15   IYMAX=   15   IZMAX=   39
   IXMIN=  -15   IYMIN=  -15   IZMIN=  -39


 parallel 3D FFT for wavefunctions:
    minimum data exchange during FFTs selected (reduces bandwidth)
 parallel 3D FFT for charge:
    minimum data exchange during FFTs selected (reduces bandwidth)

 
 Radii for the augmentation spheres in the non-local exchange
 for species   1 augmentation radius   0.874 (default was   0.699)
       energy cutoff for augmentation   2000.0
 for species   2 augmentation radius   1.037 (default was   0.829)
       energy cutoff for augmentation   2000.0
 for species   3 augmentation radius   0.846 (default was   0.677)
       energy cutoff for augmentation   2000.0

 real space projection operators:
  total allocation   :       4127.31 KBytes
  max/ min on nodes  :       1087.52        994.41

 Maximum index for augmentation-charges in exchange          227
  SETUP_FOCK is finished

 total amount of memory used by VASP MPI-rank0    65638. kBytes
=======================================================================

   base      :      30000. kBytes
   nonl-proj :      21041. kBytes
   fftplans  :       5105. kBytes
   grid      :       4257. kBytes
   one-center:        209. kBytes
   HF        :        290. kBytes
   nonlr-proj:       1835. kBytes
   wavefun   :       2901. kBytes
 
     INWAV:  cpu time      0.0000: real time      0.0000
 Broyden mixing: mesh for mixing (old mesh)
   NGX = 31   NGY = 31   NGZ = 79
  (NGX  = 96   NGY  = 96   NGZ  =240)
  gives a total of  75919 points

 initial charge density was supplied:
 charge density of overlapping atoms calculated
 number of electron     234.0000000 magnetization 
 keeping initial charge density in first step


--------------------------------------------------------------------------------------------------------


 Maximum index for augmentation-charges          273 (set IRDMAX)


--------------------------------------------------------------------------------------------------------


    FEWALD:  cpu time      0.0012: real time      0.0012


--------------------------------------- Iteration      1(   1)  ---------------------------------------


    POTLOK:  cpu time      0.0196: real time      0.0199
    SETDIJ:  cpu time      0.0118: real time      0.0120
    TRIAL :  cpu time      1.3320: real time      1.4366
    CORREC:  cpu time      0.0001: real time      0.0001
    --------------------------------------------
      LOOP:  cpu time      1.3661: real time      1.4715

 eigenvalue-minimisations  :  1152
 total energy-change (2. order) :-0.4461157E+04  (-0.1939696E+05)
 number of electron     234.0000000 magnetization 
 augmentation part      234.0000000 magnetization 

 Free energy of the ion-electron system (eV)
  ---------------------------------------------------
  alpha Z        PSCENC =       200.63487369
  Ewald energy   TEWEN  =     59439.95604768
  -Hartree energ DENC   =    -77002.14522108
  -exchange      EXHF   =         0.00000000
  -V(xc)+E(xc)   XCENC  =       880.29354823
  PAW double counting   =     16426.19331017   -24400.73210609
  entropy T*S    EENTRO =         0.00000000
  eigenvalues    EBANDS =     -3924.40943475
  atomic energy  EATOM  =     23919.05224044
  ---------------------------------------------------
  free energy    TOTEN  =     -4461.15674169 eV

  energy without entropy =    -4461.15674169  energy(sigma->0) =    -4461.15674169
  exchange ACFDT corr.  =         0.00000000  see jH, gK, PRB 81, 115126


--------------------------------------------------------------------------------------------------------




--------------------------------------- Iteration      1(   2)  ---------------------------------------


    TRIAL :  cpu time      2.1059: real time      2.1312
    CORREC:  cpu time      0.0001: real time      0.0001
    --------------------------------------------
      LOOP:  cpu time      2.1068: real time      2.1327

 eigenvalue-minimisations  :  1728
 total energy-change (2. order) :-0.2815028E+04  (-0.2636874E+04)
 number of electron     234.0000000 magnetization 
 augmentation part      234.0000000 magnetization 

 Free energy of the ion-electron system (eV)
  ---------------------------------------------------
  alpha Z        PSCENC =       200.63487369
  Ewald energy   TEWEN  =     59439.95604768
  -Hartree energ DENC   =    -77002.14522108
  -exchange      EXHF   =         0.00000000
  -V(xc)+E(xc)   XCENC  =       880.29354823
  PAW double counting   =     16426.19331017   -24400.73210609
  entropy T*S    EENTRO =         0.00000000
  eigenvalues    EBANDS =     -6739.43696075
  atomic energy  EATOM  =     23919.05224044
  ---------------------------------------------------
  free energy    TOTEN  =     -7276.18426769 eV

  energy without entropy =    -7276.18426769  energy(sigma->0) =    -7276.18426769
  exchange ACFDT corr.  =         0.00000000  see jH, gK, PRB 81, 115126


--------------------------------------------------------------------------------------------------------




--------------------------------------- Iteration      1(   3)  ---------------------------------------


    TRIAL :  cpu time      1.5404: real time      1.5637
    CORREC:  cpu time      0.0001: real time      0.0001
    --------------------------------------------
      LOOP:  cpu time      1.5414: real time      1.5648

 eigenvalue-minimisations  :  1344
 total energy-change (2. order) :-0.6027260E+03  (-0.6008813E+03)
 number of electron     234.0000000 magnetization 
 augmentation part      234.0000000 magnetization 

 Free energy of the ion-electron system (eV)
  ---------------------------------------------------
  alpha Z        PSCENC =       200.63487369
  Ewald energy   TEWEN  =     59439.95604768
  -Hartree energ DENC   =    -77002.14522108
  -exchange      EXHF   =         0.00000000
  -V(xc)+E(xc)   XCENC  =       880.29354823
  PAW double counting   =     16426.19331017   -24400.73210609
  entropy T*S    EENTRO =         0.00000000
  eigenvalues    EBANDS =     -7342.16298961
  atomic energy  EATOM  =     23919.05224044
  ---------------------------------------------------
  free energy    TOTEN  =     -7878.91029656 eV

  energy without entropy =    -7878.91029656  energy(sigma->0) =    -7878.91029656
  exchange ACFDT corr.  =         0.00000000  see jH, gK, PRB 81, 115126


--------------------------------------------------------------------------------------------------------




--------------------------------------- Iteration      1(   4)  ---------------------------------------


    TRIAL :  cpu time      2.0898: real time      2.1134
    CORREC:  cpu time      0.0001: real time      0.0001
    --------------------------------------------
      LOOP:  cpu time      2.0902: real time      2.1151

 eigenvalue-minimisations  :  1728
 total energy-change (2. order) :-0.2919938E+02  (-0.2913761E+02)
 number of electron     234.0000000 magnetization 
 augmentation part      234.0000000 magnetization 

 Free energy of the ion-electron system (eV)
  ---------------------------------------------------
  alpha Z        PSCENC =       200.63487369
  Ewald energy   TEWEN  =     59439.95604768
  -Hartree energ DENC   =    -77002.14522108
  -exchange      EXHF   =         0.00000000
  -V(xc)+E(xc)   XCENC  =       880.29354823
  PAW double counting   =     16426.19331017   -24400.73210609
  entropy T*S    EENTRO =         0.00000000
  eigenvalues    EBANDS =     -7371.36237077
  atomic energy  EATOM  =     23919.05224044
  ---------------------------------------------------
  free energy    TOTEN  =     -7908.10967771 eV

  energy without entropy =    -7908.10967771  energy(sigma->0) =    -7908.10967771
  exchange ACFDT corr.  =         0.00000000  see jH, gK, PRB 81, 115126


--------------------------------------------------------------------------------------------------------




--------------------------------------- Iteration      1(   5)  ---------------------------------------


    POTLOK:  cpu time      0.0155: real time      0.0155
    SETDIJ:  cpu time      0.0104: real time      0.0105
    TRIAL :  cpu time     35.8311: real time     36.1656
    CORREC:  cpu time      0.0001: real time      0.0001
    CHARGE:  cpu time      0.0268: real time      0.0271
    --------------------------------------------
      LOOP:  cpu time     35.8845: real time     36.2199

 eigenvalue-minimisations  :  1728
 total energy-change (2. order) : 0.7463313E+04  (-0.1957439E+02)
 number of electron     234.0000857 magnetization 
 augmentation part       81.0459912 magnetization 

 Free energy of the ion-electron system (eV)
  ---------------------------------------------------
  alpha Z        PSCENC =       200.63487369
  Ewald energy   TEWEN  =     59439.95604768
  -Hartree energ DENC   =    -77002.14522108
  -exchange      EXHF   =      3558.27203798
  -V(xc)+E(xc)   XCENC  =         0.00000000
  PAW double counting   =     17255.40176317   -18716.78391961
  entropy T*S    EENTRO =         0.00000000
  eigenvalues    EBANDS =     -9099.18405655
  atomic energy  EATOM  =     23919.05224044
  ---------------------------------------------------
  free energy    TOTEN  =      -444.79623427 eV

  energy without entropy =     -444.79623427  energy(sigma->0) =     -444.79623427
  exchange ACFDT corr.  =         0.00000000  see jH, gK, PRB 81, 115126


--------------------------------------------------------------------------------------------------------




--------------------------------------- Iteration      1(   6)  ---------------------------------------


    POTLOK:  cpu time      0.0147: real time      0.0148
    SETDIJ:  cpu time      0.0106: real time      0.0109
    TRIAL :  cpu time     33.9513: real time     34.2671
    CORREC:  cpu time     33.7107: real time     34.0380
    CHARGE:  cpu time      0.0257: real time      0.0262
    --------------------------------------------
      LOOP:  cpu time     67.7139: real time     68.3584

 eigenvalue-minimisations  :     0
 total energy-change (2. order) : 0.1941576E+03  (-0.9308696E+02)
 number of electron     234.0001015 magnetization 
 augmentation part       74.9677313 magnetization 

 Free energy of the ion-electron system (eV)
  ---------------------------------------------------
  alpha Z        PSCENC =       200.63487369
  Ewald energy   TEWEN  =     59439.95604768
  -Hartree energ DENC   =    -79682.55709264
  -exchange      EXHF   =      3571.51563785
  -V(xc)+E(xc)   XCENC  =         0.00000000
  PAW double counting   =     19713.77372410   -21177.22183018
  entropy T*S    EENTRO =         0.00000000
  eigenvalues    EBANDS =     -6235.79226834
  atomic energy  EATOM  =     23919.05224044
  ---------------------------------------------------
  free energy    TOTEN  =      -250.63866740 eV

  energy without entropy =     -250.63866740  energy(sigma->0) =     -250.63866740
  exchange ACFDT corr.  =         0.00000000  see jH, gK, PRB 81, 115126


--------------------------------------------------------------------------------------------------------




--------------------------------------- Iteration      1(   7)  ---------------------------------------


    POTLOK:  cpu time      0.0146: real time      0.0147
    SETDIJ:  cpu time      0.0103: real time      0.0104
    TRIAL :  cpu time     33.9629: real time     34.2770
    CORREC:  cpu time     33.7585: real time     34.0641
    CHARGE:  cpu time      0.0255: real time      0.0257
    --------------------------------------------
      LOOP:  cpu time     67.7732: real time     68.3970

 eigenvalue-minimisations  :     0
 total energy-change (2. order) :-0.9368392E+02  (-0.7923242E+01)
 number of electron     234.0001076 magnetization 
 augmentation part       76.7808411 magnetization 

 Free energy of the ion-electron system (eV)
  ---------------------------------------------------
  alpha Z        PSCENC =       200.63487369
  Ewald energy   TEWEN  =     59439.95604768
  -Hartree energ DENC   =    -78436.70747294
  -exchange      EXHF   =      3396.15023960
  -V(xc)+E(xc)   XCENC  =         0.00000000
  PAW double counting   =     19972.46784383   -21358.20608021
  entropy T*S    EENTRO =         0.00000000
  eigenvalues    EBANDS =     -7477.67028215
  atomic energy  EATOM  =     23919.05224044
  ---------------------------------------------------
  free energy    TOTEN  =      -344.32259006 eV

  energy without entropy =     -344.32259006  energy(sigma->0) =     -344.32259006
  exchange ACFDT corr.  =         0.00000000  see jH, gK, PRB 81, 115126


--------------------------------------------------------------------------------------------------------




--------------------------------------- Iteration      1(   8)  ---------------------------------------


    POTLOK:  cpu time      0.0146: real time      0.0153
    SETDIJ:  cpu time      0.0105: real time      0.0105
    TRIAL :  cpu time     33.8676: real time     34.2352
    CORREC:  cpu time     33.6593: real time     33.9875
    CHARGE:  cpu time      0.0255: real time      0.0257
    --------------------------------------------
      LOOP:  cpu time     67.5786: real time     68.2757

 eigenvalue-minimisations  :     0
 total energy-change (2. order) :-0.7742875E+01  (-0.7444024E+01)
 number of electron     234.0001043 magnetization 
 augmentation part       76.2929420 magnetization 

 Free energy of the ion-electron system (eV)
  ---------------------------------------------------
  alpha Z        PSCENC =       200.63487369
  Ewald energy   TEWEN  =     59439.95604768
  -Hartree energ DENC   =    -78387.16225286
  -exchange      EXHF   =      3390.95135664
  -V(xc)+E(xc)   XCENC  =         0.00000000
  PAW double counting   =     20309.59447320   -21788.95972727
  entropy T*S    EENTRO =         0.00000000
  eigenvalues    EBANDS =     -7436.13247697
  atomic energy  EATOM  =     23919.05224044
  ---------------------------------------------------
  free energy    TOTEN  =      -352.06546546 eV

  energy without entropy =     -352.06546546  energy(sigma->0) =     -352.06546546
  exchange ACFDT corr.  =         0.00000000  see jH, gK, PRB 81, 115126


--------------------------------------------------------------------------------------------------------




--------------------------------------- Iteration      1(   9)  ---------------------------------------


    POTLOK:  cpu time      0.0146: real time      0.0147
    SETDIJ:  cpu time      0.0103: real time      0.0103
    TRIAL :  cpu time     33.8766: real time     34.1947
    CORREC:  cpu time     33.6066: real time     33.9432
    CHARGE:  cpu time      0.0253: real time      0.0258
    --------------------------------------------
      LOOP:  cpu time     67.5345: real time     68.1902

 eigenvalue-minimisations  :     0
 total energy-change (2. order) :-0.7437297E+01  (-0.4790996E+01)
 number of electron     234.0001022 magnetization 
 augmentation part       76.5055915 magnetization 

 Free energy of the ion-electron system (eV)
  ---------------------------------------------------
  alpha Z        PSCENC =       200.63487369
  Ewald energy   TEWEN  =     59439.95604768
  -Hartree energ DENC   =    -78267.80189105
  -exchange      EXHF   =      3369.09679728
  -V(xc)+E(xc)   XCENC  =         0.00000000
  PAW double counting   =     20430.76220238   -21874.50902721
  entropy T*S    EENTRO =         0.00000000
  eigenvalues    EBANDS =     -7576.69400544
  atomic energy  EATOM  =     23919.05224044
  ---------------------------------------------------
  free energy    TOTEN  =      -359.50276223 eV

  energy without entropy =     -359.50276223  energy(sigma->0) =     -359.50276223
  exchange ACFDT corr.  =         0.00000000  see jH, gK, PRB 81, 115126


--------------------------------------------------------------------------------------------------------




--------------------------------------- Iteration      1(  10)  ---------------------------------------


    POTLOK:  cpu time      0.0147: real time      0.0154
    SETDIJ:  cpu time      0.0108: real time      0.0109
    TRIAL :  cpu time     34.5734: real time     34.9114
    CORREC:  cpu time     33.6237: real time     33.9428
    CHARGE:  cpu time      0.0256: real time      0.0259
    --------------------------------------------
      LOOP:  cpu time     68.2490: real time     68.9078

 eigenvalue-minimisations  :     0
 total energy-change (2. order) :-0.4792882E+01  (-0.3052638E+01)
 number of electron     234.0001036 magnetization 
 augmentation part       77.4048008 magnetization 

 Free energy of the ion-electron system (eV)
  ---------------------------------------------------
  alpha Z        PSCENC =       200.63487369
  Ewald energy   TEWEN  =     59439.95604768
  -Hartree energ DENC   =    -78250.45645558
  -exchange      EXHF   =      3353.09997611
  -V(xc)+E(xc)   XCENC  =         0.00000000
  PAW double counting   =     20353.18540775   -21794.21607265
  entropy T*S    EENTRO =         0.00000000
  eigenvalues    EBANDS =     -7585.55166193
  atomic energy  EATOM  =     23919.05224044
  ---------------------------------------------------
  free energy    TOTEN  =      -364.29564448 eV

  energy without entropy =     -364.29564448  energy(sigma->0) =     -364.29564448
  exchange ACFDT corr.  =         0.00000000  see jH, gK, PRB 81, 115126


--------------------------------------------------------------------------------------------------------




--------------------------------------- Iteration      1(  11)  ---------------------------------------


    POTLOK:  cpu time      0.0148: real time      0.0149
    SETDIJ:  cpu time      0.0104: real time      0.0105
    TRIAL :  cpu time     33.8680: real time     34.1884
    CORREC:  cpu time     34.1458: real time     34.4523
    CHARGE:  cpu time      0.0265: real time      0.0267
    --------------------------------------------
      LOOP:  cpu time     68.0665: real time     68.6943

 eigenvalue-minimisations  :     0
 total energy-change (2. order) :-0.3047406E+01  (-0.3053987E+01)
 number of electron     234.0001019 magnetization 
 augmentation part       76.5165058 magnetization 

 Free energy of the ion-electron system (eV)
  ---------------------------------------------------
  alpha Z        PSCENC =       200.63487369
  Ewald energy   TEWEN  =     59439.95604768
  -Hartree energ DENC   =    -78288.46811052
  -exchange      EXHF   =      3349.96385364
  -V(xc)+E(xc)   XCENC  =         0.00000000
  PAW double counting   =     20353.77860711   -21833.71076746
  entropy T*S    EENTRO =         0.00000000
  eigenvalues    EBANDS =     -7508.54979475
  atomic energy  EATOM  =     23919.05224044
  ---------------------------------------------------
  free energy    TOTEN  =      -367.34305017 eV

  energy without entropy =     -367.34305017  energy(sigma->0) =     -367.34305017
  exchange ACFDT corr.  =         0.00000000  see jH, gK, PRB 81, 115126


--------------------------------------------------------------------------------------------------------




--------------------------------------- Iteration      1(  12)  ---------------------------------------


    POTLOK:  cpu time      0.0147: real time      0.0148
    SETDIJ:  cpu time      0.0104: real time      0.0104
    TRIAL :  cpu time     33.7917: real time     34.1114
    CORREC:  cpu time     33.6022: real time     33.9216
    CHARGE:  cpu time      0.0259: real time      0.0260
    --------------------------------------------
      LOOP:  cpu time     67.4453: real time     68.0863

 eigenvalue-minimisations  :     0
 total energy-change (2. order) :-0.3127100E+01  (-0.1409018E+01)
 number of electron     234.0001030 magnetization 
 augmentation part       76.4841326 magnetization 

 Free energy of the ion-electron system (eV)
  ---------------------------------------------------
  alpha Z        PSCENC =       200.63487369
  Ewald energy   TEWEN  =     59439.95604768
  -Hartree energ DENC   =    -78211.40646949
  -exchange      EXHF   =      3337.56220353
  -V(xc)+E(xc)   XCENC  =         0.00000000
  PAW double counting   =     20305.72870997   -21749.50716317
  entropy T*S    EENTRO =         0.00000000
  eigenvalues    EBANDS =     -7612.49059249
  atomic energy  EATOM  =     23919.05224044
  ---------------------------------------------------
  free energy    TOTEN  =      -370.47014984 eV

  energy without entropy =     -370.47014984  energy(sigma->0) =     -370.47014984
  exchange ACFDT corr.  =         0.00000000  see jH, gK, PRB 81, 115126


--------------------------------------------------------------------------------------------------------




--------------------------------------- Iteration      1(  13)  ---------------------------------------


    POTLOK:  cpu time      0.0163: real time      0.0168
    SETDIJ:  cpu time      0.0104: real time      0.0104
    TRIAL :  cpu time     33.8549: real time     34.1793
    CORREC:  cpu time     33.6568: real time     33.9561
    CHARGE:  cpu time      0.0257: real time      0.0258
    --------------------------------------------
      LOOP:  cpu time     67.5649: real time     68.1900

 eigenvalue-minimisations  :     0
 total energy-change (2. order) :-0.1424786E+01  (-0.5720105E+00)
 number of electron     234.0001039 magnetization 
 augmentation part       76.6075988 magnetization 

 Free energy of the ion-electron system (eV)
  ---------------------------------------------------
  alpha Z        PSCENC =       200.63487369
  Ewald energy   TEWEN  =     59439.95604768
  -Hartree energ DENC   =    -78151.86928466
  -exchange      EXHF   =      3334.80357044
  -V(xc)+E(xc)   XCENC  =         0.00000000
  PAW double counting   =     20327.31184595   -21777.43055645
  entropy T*S    EENTRO =         0.00000000
  eigenvalues    EBANDS =     -7664.35367314
  atomic energy  EATOM  =     23919.05224044
  ---------------------------------------------------
  free energy    TOTEN  =      -371.89493605 eV

  energy without entropy =     -371.89493605  energy(sigma->0) =     -371.89493605
  exchange ACFDT corr.  =         0.00000000  see jH, gK, PRB 81, 115126


--------------------------------------------------------------------------------------------------------




--------------------------------------- Iteration      1(  14)  ---------------------------------------


    POTLOK:  cpu time      0.0146: real time      0.0147
    SETDIJ:  cpu time      0.0112: real time      0.0113
    TRIAL :  cpu time     33.8403: real time     34.1451
    CORREC:  cpu time     33.6245: real time     33.9276
    CHARGE:  cpu time      0.0255: real time      0.0257
    --------------------------------------------
      LOOP:  cpu time     67.5171: real time     68.1258

 eigenvalue-minimisations  :     0
 total energy-change (2. order) :-0.5709815E+00  (-0.2565308E+00)
 number of electron     234.0001034 magnetization 
 augmentation part       76.4069554 magnetization 

 Free energy of the ion-electron system (eV)
  ---------------------------------------------------
  alpha Z        PSCENC =       200.63487369
  Ewald energy   TEWEN  =     59439.95604768
  -Hartree energ DENC   =    -78120.76053082
  -exchange      EXHF   =      3335.41341380
  -V(xc)+E(xc)   XCENC  =         0.00000000
  PAW double counting   =     20333.76771824   -21793.23777091
  entropy T*S    EENTRO =         0.00000000
  eigenvalues    EBANDS =     -7687.29190964
  atomic energy  EATOM  =     23919.05224044
  ---------------------------------------------------
  free energy    TOTEN  =      -372.46591752 eV

  energy without entropy =     -372.46591752  energy(sigma->0) =     -372.46591752
  exchange ACFDT corr.  =         0.00000000  see jH, gK, PRB 81, 115126


--------------------------------------------------------------------------------------------------------




--------------------------------------- Iteration      1(  15)  ---------------------------------------


    POTLOK:  cpu time      0.0152: real time      0.0153
    SETDIJ:  cpu time      0.0103: real time      0.0104
    TRIAL :  cpu time     33.8236: real time     34.1482
    CORREC:  cpu time     33.5820: real time     33.8940
    CHARGE:  cpu time      0.0257: real time      0.0259
    --------------------------------------------
      LOOP:  cpu time     67.4577: real time     68.0972

 eigenvalue-minimisations  :     0
 total energy-change (2. order) :-0.2553721E+00  (-0.1876262E+00)
 number of electron     234.0001033 magnetization 
 augmentation part       76.4642025 magnetization 

 Free energy of the ion-electron system (eV)
  ---------------------------------------------------
  alpha Z        PSCENC =       200.63487369
  Ewald energy   TEWEN  =     59439.95604768
  -Hartree energ DENC   =    -78097.63144499
  -exchange      EXHF   =      3334.87412329
  -V(xc)+E(xc)   XCENC  =         0.00000000
  PAW double counting   =     20299.21558980   -21749.69629545
  entropy T*S    EENTRO =         0.00000000
  eigenvalues    EBANDS =     -7719.12642409
  atomic energy  EATOM  =     23919.05224044
  ---------------------------------------------------
  free energy    TOTEN  =      -372.72128962 eV

  energy without entropy =     -372.72128962  energy(sigma->0) =     -372.72128962
  exchange ACFDT corr.  =         0.00000000  see jH, gK, PRB 81, 115126


--------------------------------------------------------------------------------------------------------




--------------------------------------- Iteration      1(  16)  ---------------------------------------


    POTLOK:  cpu time      0.0161: real time      0.0161
    SETDIJ:  cpu time      0.0104: real time      0.0105
    TRIAL :  cpu time     33.8407: real time     34.1616
    CORREC:  cpu time     33.5531: real time     33.8767
    CHARGE:  cpu time      0.0251: real time      0.0256
    --------------------------------------------
      LOOP:  cpu time     67.4463: real time     68.0946

 eigenvalue-minimisations  :     0
 total energy-change (2. order) :-0.1872221E+00  (-0.1052363E+00)
 number of electron     234.0001032 magnetization 
 augmentation part       76.5663211 magnetization 

 Free energy of the ion-electron system (eV)
  ---------------------------------------------------
  alpha Z        PSCENC =       200.63487369
  Ewald energy   TEWEN  =     59439.95604768
  -Hartree energ DENC   =    -78094.83876507
  -exchange      EXHF   =      3335.86608710
  -V(xc)+E(xc)   XCENC  =         0.00000000
  PAW double counting   =     20255.31198537   -21707.23688100
  entropy T*S    EENTRO =         0.00000000
  eigenvalues    EBANDS =     -7721.65409990
  atomic energy  EATOM  =     23919.05224044
  ---------------------------------------------------
  free energy    TOTEN  =      -372.90851169 eV

  energy without entropy =     -372.90851169  energy(sigma->0) =     -372.90851169
  exchange ACFDT corr.  =         0.00000000  see jH, gK, PRB 81, 115126


--------------------------------------------------------------------------------------------------------




--------------------------------------- Iteration      1(  17)  ---------------------------------------


    POTLOK:  cpu time      0.0147: real time      0.0148
    SETDIJ:  cpu time      0.0103: real time      0.0103
    TRIAL :  cpu time     33.8512: real time     34.1676
    CORREC:  cpu time     33.5969: real time     33.9108
    CHARGE:  cpu time      0.0256: real time      0.0257
    --------------------------------------------
      LOOP:  cpu time     67.4997: real time     68.1329

 eigenvalue-minimisations  :     0
 total energy-change (2. order) :-0.1049076E+00  (-0.7253356E-01)
 number of electron     234.0001029 magnetization 
 augmentation part       76.5106753 magnetization 

 Free energy of the ion-electron system (eV)
  ---------------------------------------------------
  alpha Z        PSCENC =       200.63487369
  Ewald energy   TEWEN  =     59439.95604768
  -Hartree energ DENC   =    -78102.29300114
  -exchange      EXHF   =      3336.76482573
  -V(xc)+E(xc)   XCENC  =         0.00000000
  PAW double counting   =     20219.95199183   -21675.78409680
  entropy T*S    EENTRO =         0.00000000
  eigenvalues    EBANDS =     -7711.29630069
  atomic energy  EATOM  =     23919.05224044
  ---------------------------------------------------
  free energy    TOTEN  =      -373.01341925 eV

  energy without entropy =     -373.01341925  energy(sigma->0) =     -373.01341925
  exchange ACFDT corr.  =         0.00000000  see jH, gK, PRB 81, 115126


--------------------------------------------------------------------------------------------------------




--------------------------------------- Iteration      1(  18)  ---------------------------------------


    POTLOK:  cpu time      0.0149: real time      0.0149
    SETDIJ:  cpu time      0.0103: real time      0.0103
    TRIAL :  cpu time     33.8342: real time     34.1426
    CORREC:  cpu time     33.6363: real time     33.9510
    CHARGE:  cpu time      0.0257: real time      0.0258
    --------------------------------------------
      LOOP:  cpu time     67.5220: real time     68.1464

 eigenvalue-minimisations  :     0
 total energy-change (2. order) :-0.7237797E-01  (-0.5425291E-01)
 number of electron     234.0001028 magnetization 
 augmentation part       76.5099665 magnetization 

 Free energy of the ion-electron system (eV)
  ---------------------------------------------------
  alpha Z        PSCENC =       200.63487369
  Ewald energy   TEWEN  =     59439.95604768
  -Hartree energ DENC   =    -78107.04848844
  -exchange      EXHF   =      3336.75822923
  -V(xc)+E(xc)   XCENC  =         0.00000000
  PAW double counting   =     20190.28550848   -21643.24105131
  entropy T*S    EENTRO =         0.00000000
  eigenvalues    EBANDS =     -7709.48315699
  atomic energy  EATOM  =     23919.05224044
  ---------------------------------------------------
  free energy    TOTEN  =      -373.08579722 eV

  energy without entropy =     -373.08579722  energy(sigma->0) =     -373.08579722
  exchange ACFDT corr.  =         0.00000000  see jH, gK, PRB 81, 115126


--------------------------------------------------------------------------------------------------------




--------------------------------------- Iteration      1(  19)  ---------------------------------------


    POTLOK:  cpu time      0.0154: real time      0.0155
    SETDIJ:  cpu time      0.0103: real time      0.0104
    TRIAL :  cpu time     33.8586: real time     34.1819
    CORREC:  cpu time     33.6035: real time     33.9325
    CHARGE:  cpu time      0.0258: real time      0.0260
    --------------------------------------------
      LOOP:  cpu time     67.5144: real time     68.1680

 eigenvalue-minimisations  :     0
 total energy-change (2. order) :-0.5424726E-01  (-0.4474316E-01)
 number of electron     234.0001029 magnetization 
 augmentation part       76.5260664 magnetization 

 Free energy of the ion-electron system (eV)
  ---------------------------------------------------
  alpha Z        PSCENC =       200.63487369
  Ewald energy   TEWEN  =     59439.95604768
  -Hartree energ DENC   =    -78114.45651653
  -exchange      EXHF   =      3337.27168637
  -V(xc)+E(xc)   XCENC  =         0.00000000
  PAW double counting   =     20184.90958922   -21637.74287494
  entropy T*S    EENTRO =         0.00000000
  eigenvalues    EBANDS =     -7702.76509041
  atomic energy  EATOM  =     23919.05224044
  ---------------------------------------------------
  free energy    TOTEN  =      -373.14004448 eV

  energy without entropy =     -373.14004448  energy(sigma->0) =     -373.14004448
  exchange ACFDT corr.  =         0.00000000  see jH, gK, PRB 81, 115126


--------------------------------------------------------------------------------------------------------




--------------------------------------- Iteration      1(  20)  ---------------------------------------


    POTLOK:  cpu time      0.0148: real time      0.0152
    SETDIJ:  cpu time      0.0104: real time      0.0104
    TRIAL :  cpu time     33.8302: real time     34.1381
    CORREC:  cpu time     33.6386: real time     33.9491
    CHARGE:  cpu time      0.0259: real time      0.0261
    --------------------------------------------
      LOOP:  cpu time     67.5206: real time     68.1420

 eigenvalue-minimisations  :     0
 total energy-change (2. order) :-0.4470724E-01  (-0.2782218E-01)
 number of electron     234.0001030 magnetization 
 augmentation part       76.5182212 magnetization 

 Free energy of the ion-electron system (eV)
  ---------------------------------------------------
  alpha Z        PSCENC =       200.63487369
  Ewald energy   TEWEN  =     59439.95604768
  -Hartree energ DENC   =    -78121.18943146
  -exchange      EXHF   =      3337.98358747
  -V(xc)+E(xc)   XCENC  =         0.00000000
  PAW double counting   =     20196.51047068   -21650.15861905
  entropy T*S    EENTRO =         0.00000000
  eigenvalues    EBANDS =     -7695.97392117
  atomic energy  EATOM  =     23919.05224044
  ---------------------------------------------------
  free energy    TOTEN  =      -373.18475172 eV

  energy without entropy =     -373.18475172  energy(sigma->0) =     -373.18475172
  exchange ACFDT corr.  =         0.00000000  see jH, gK, PRB 81, 115126


--------------------------------------------------------------------------------------------------------




--------------------------------------- Iteration      1(  21)  ---------------------------------------


    POTLOK:  cpu time      0.0148: real time      0.0149
    SETDIJ:  cpu time      0.0105: real time      0.0105
    TRIAL :  cpu time     33.8742: real time     34.1808
    CORREC:  cpu time     33.6665: real time     33.9861
    CHARGE:  cpu time      0.0258: real time      0.0260
    --------------------------------------------
      LOOP:  cpu time     67.5926: real time     68.2197

 eigenvalue-minimisations  :     0
 total energy-change (2. order) :-0.2781464E-01  (-0.1562368E-01)
 number of electron     234.0001031 magnetization 
 augmentation part       76.4959902 magnetization 

 Free energy of the ion-electron system (eV)
  ---------------------------------------------------
  alpha Z        PSCENC =       200.63487369
  Ewald energy   TEWEN  =     59439.95604768
  -Hartree energ DENC   =    -78124.72798921
  -exchange      EXHF   =      3338.35872662
  -V(xc)+E(xc)   XCENC  =         0.00000000
  PAW double counting   =     20210.89422337   -21664.49862630
  entropy T*S    EENTRO =         0.00000000
  eigenvalues    EBANDS =     -7692.88206264
  atomic energy  EATOM  =     23919.05224044
  ---------------------------------------------------
  free energy    TOTEN  =      -373.21256636 eV

  energy without entropy =     -373.21256636  energy(sigma->0) =     -373.21256636
  exchange ACFDT corr.  =         0.00000000  see jH, gK, PRB 81, 115126


--------------------------------------------------------------------------------------------------------




--------------------------------------- Iteration      1(  22)  ---------------------------------------


    POTLOK:  cpu time      0.0147: real time      0.0148
    SETDIJ:  cpu time      0.0103: real time      0.0104
    TRIAL :  cpu time     33.8336: real time     34.1542
    CORREC:  cpu time     33.5910: real time     33.9091
    CHARGE:  cpu time      0.0254: real time      0.0258
    --------------------------------------------
      LOOP:  cpu time     67.4756: real time     68.1181

 eigenvalue-minimisations  :     0
 total energy-change (2. order) :-0.1561832E-01  (-0.9892688E-02)
 number of electron     234.0001031 magnetization 
 augmentation part       76.4902916 magnetization 

 Free energy of the ion-electron system (eV)
  ---------------------------------------------------
  alpha Z        PSCENC =       200.63487369
  Ewald energy   TEWEN  =     59439.95604768
  -Hartree energ DENC   =    -78126.35684202
  -exchange      EXHF   =      3338.44218811
  -V(xc)+E(xc)   XCENC  =         0.00000000
  PAW double counting   =     20219.31731778   -21672.23722108
  entropy T*S    EENTRO =         0.00000000
  eigenvalues    EBANDS =     -7692.03678927
  atomic energy  EATOM  =     23919.05224044
  ---------------------------------------------------
  free energy    TOTEN  =      -373.22818467 eV

  energy without entropy =     -373.22818467  energy(sigma->0) =     -373.22818467
  exchange ACFDT corr.  =         0.00000000  see jH, gK, PRB 81, 115126


--------------------------------------------------------------------------------------------------------




--------------------------------------- Iteration      1(  23)  ---------------------------------------


    POTLOK:  cpu time      0.0147: real time      0.0148
    SETDIJ:  cpu time      0.0103: real time      0.0103
    TRIAL :  cpu time     33.8295: real time     34.1574
    CORREC:  cpu time     34.4053: real time     34.7281
    CHARGE:  cpu time      0.0256: real time      0.0257
    --------------------------------------------
      LOOP:  cpu time     68.2863: real time     68.9378

 eigenvalue-minimisations  :     0
 total energy-change (2. order) :-0.9888846E-02  (-0.6101421E-02)
[...]
    131       4.4583      0.00000
    132       4.5947      0.00000
    133       4.5969      0.00000
    134       4.6235      0.00000
    135       5.0850      0.00000
    136       5.0878      0.00000
    137       5.1166      0.00000
    138       5.1240      0.00000
    139       5.2687      0.00000
    140       5.3958      0.00000
    141       5.4197      0.00000
    142       5.7280      0.00000
    143       5.7608      0.00000
    144       5.7867      0.00000
    145       5.8366      0.00000
    146       6.0304      0.00000
    147       6.1562      0.00000
    148       6.4818      0.00000
    149       6.5299      0.00000
    150       6.6245      0.00000
    151       6.6411      0.00000
    152       6.6571      0.00000
    153       6.7332      0.00000
    154       6.8520      0.00000
    155       7.0431      0.00000
    156       7.1678      0.00000
    157       7.1886      0.00000
    158       7.1932      0.00000
    159       7.2190      0.00000
    160       7.5514      0.00000
    161       7.5758      0.00000
    162       7.6102      0.00000
    163       7.6239      0.00000
    164       7.9278      0.00000
    165       7.9736      0.00000
    166       8.4006      0.00000
    167       8.4183      0.00000
    168       8.4896      0.00000
    169       8.4901      0.00000
    170       8.5782      0.00000
    171       8.5945      0.00000
    172       8.6032      0.00000
    173       8.6067      0.00000
    174       8.6393      0.00000
    175       8.7071      0.00000
    176       8.7802      0.00000
    177       8.9815      0.00000
    178       9.0657      0.00000
    179       9.1791      0.00000
    180       9.2919      0.00000
    181       9.4273      0.00000
    182       9.4425      0.00000
    183       9.4426      0.00000
    184       9.5479      0.00000
    185       9.9212      0.00000
    186      10.0937      0.00000
    187      10.3574      0.00000
    188      10.8241      0.00000
    189      10.8433      0.00000
    190      10.8793      0.00000
    191      12.0805      0.00000
    192      12.2640      0.00000

 k-point     3 :       0.5000    0.5000    0.0000
  band No.  band energies     occupation 
      1     -58.1391      2.00000
      2     -58.1387      2.00000
      3     -58.1386      2.00000
      4     -58.1384      2.00000
      5     -58.1352      2.00000
      6     -58.1348      2.00000
      7     -58.1347      2.00000
      8     -58.1342      2.00000
      9     -58.1056      2.00000
     10     -58.1053      2.00000
     11     -58.1052      2.00000
     12     -58.1052      2.00000
     13     -58.0895      2.00000
     14     -58.0891      2.00000
     15     -58.0888      2.00000
     16     -58.0888      2.00000
     17     -58.0803      2.00000
     18     -58.0802      2.00000
     19     -58.0801      2.00000
     20     -58.0799      2.00000
     21     -58.0639      2.00000
     22     -58.0637      2.00000
     23     -58.0637      2.00000
     24     -58.0634      2.00000
     25     -58.0193      2.00000
     26     -57.9640      2.00000
     27     -57.9640      2.00000
     28     -57.8528      2.00000
     29     -57.8528      2.00000
     30     -57.8525      2.00000
     31     -57.8525      2.00000
     32     -57.8193      2.00000
     33     -57.8173      2.00000
     34     -57.8172      2.00000
     35     -57.8060      2.00000
     36     -57.8057      2.00000
     37     -57.8021      2.00000
     38     -57.8019      2.00000
     39     -57.7981      2.00000
     40     -57.7978      2.00000
     41     -57.7964      2.00000
     42     -57.7962      2.00000
     43     -57.7626      2.00000
     44     -57.7612      2.00000
     45     -57.7582      2.00000
     46     -57.7582      2.00000
     47     -57.7535      2.00000
     48     -57.7524      2.00000
     49     -39.4882      2.00000
     50     -30.1495      2.00000
     51     -30.1495      2.00000
     52     -30.1476      2.00000
     53     -30.1422      2.00000
     54     -29.4431      2.00000
     55     -29.4430      2.00000
     56     -29.4427      2.00000
     57     -29.4405      2.00000
     58     -29.4217      2.00000
     59     -29.4197      2.00000
     60     -29.4197      2.00000
     61     -29.4020      2.00000
     62     -29.1816      2.00000
     63     -29.1480      2.00000
     64     -29.1480      2.00000
     65     -29.1264      2.00000
     66     -20.2377      2.00000
     67     -15.5734      2.00000
     68     -15.5734      2.00000
     69     -13.5023      2.00000
     70     -12.2676      2.00000
     71     -12.2673      2.00000
     72     -12.2662      2.00000
     73     -12.2661      2.00000
     74     -12.0622      2.00000
     75     -12.0622      2.00000
     76     -12.0591      2.00000
     77     -12.0547      2.00000
     78     -11.3501      2.00000
     79     -11.3486      2.00000
     80     -11.3486      2.00000
     81     -11.3392      2.00000
     82     -11.2941      2.00000
     83     -11.2941      2.00000
     84     -11.2932      2.00000
     85     -11.2823      2.00000
     86     -10.1586      2.00000
     87     -10.1559      2.00000
     88     -10.1559      2.00000
     89     -10.1539      2.00000
     90      -9.9011      2.00000
     91      -9.8925      2.00000
     92      -9.8865      2.00000
     93      -9.8864      2.00000
     94      -9.8719      2.00000
     95      -9.8701      2.00000
     96      -9.8701      2.00000
     97      -9.8596      2.00000
     98      -9.1660      2.00000
     99      -9.1660      2.00000
    100      -9.1654      2.00000
    101      -9.1458      2.00000
    102      -9.0091      2.00000
    103      -9.0079      2.00000
    104      -9.0079      2.00000
    105      -9.0064      2.00000
    106      -8.9431      2.00000
    107      -8.9155      2.00000
    108      -8.9155      2.00000
    109      -8.8945      2.00000
    110      -8.6707      2.00000
    111      -8.6707      2.00000
    112      -8.6672      2.00000
    113      -8.6535      2.00000
    114      -8.3384      2.00000
    115      -8.3384      2.00000
    116      -8.3381      2.00000
    117      -8.3373      2.00000
    118       2.7433      0.00000
    119       2.7666      0.00000
    120       2.7666      0.00000
    121       2.8997      0.00000
    122       3.0126      0.00000
    123       3.0126      0.00000
    124       3.0565      0.00000
    125       3.5192      0.00000
    126       3.5593      0.00000
    127       3.5613      0.00000
    128       3.5613      0.00000
    129       3.7463      0.00000
    130       4.2176      0.00000
    131       4.2176      0.00000
    132       4.2737      0.00000
    133       4.7067      0.00000
    134       4.8360      0.00000
    135       4.8360      0.00000
    136       5.0890      0.00000
    137       5.3580      0.00000
    138       5.6488      0.00000
    139       5.6488      0.00000
    140       6.2121      0.00000
    141       6.2274      0.00000
    142       6.2274      0.00000
    143       6.2426      0.00000
    144       6.8316      0.00000
    145       6.8514      0.00000
    146       6.8706      0.00000
    147       6.8708      0.00000
    148       6.9231      0.00000
    149       6.9838      0.00000
    150       6.9839      0.00000
    151       7.0315      0.00000
    152       7.1402      0.00000
    153       7.1640      0.00000
    154       7.2011      0.00000
    155       7.2142      0.00000
    156       7.2143      0.00000
    157       7.3035      0.00000
    158       7.3202      0.00000
    159       7.3202      0.00000
    160       7.3329      0.00000
    161       7.4961      0.00000
    162       7.4962      0.00000
    163       7.5585      0.00000
    164       7.6068      0.00000
    165       7.6267      0.00000
    166       7.6290      0.00000
    167       7.6876      0.00000
    168       7.6877      0.00000
    169       7.9043      0.00000
    170       7.9045      0.00000
    171       8.1701      0.00000
    172       8.2432      0.00000
    173       8.2630      0.00000
    174       8.3574      0.00000
    175       8.3814      0.00000
    176       8.6868      0.00000
    177       8.7787      0.00000
    178       8.7857      0.00000
    179       8.8228      0.00000
    180       8.8863      0.00000
    181       8.9507      0.00000
    182       9.0038      0.00000
    183       9.3136      0.00000
    184       9.5913      0.00000
    185       9.7228      0.00000
    186       9.8187      0.00000
    187       9.8529      0.00000
    188       9.9230      0.00000
    189      10.0629      0.00000
    190      10.0984      0.00000
    191      10.6971      0.00000
    192      11.4154      0.00000


--------------------------------------------------------------------------------------------------------


 soft charge-density along one line, spin component           1
         0         1         2         3         4         5         6         7         8         9
 total charge-density along one line
 
 pseudopotential strength for first ion, spin component:           1
  9.286 -14.236   0.000   0.030   0.000   0.000   0.146   0.000
-14.236  24.667  -0.000  -0.036  -0.000  -0.000  -0.265  -0.000
  0.000  -0.000  -3.647   0.000   0.000  -0.390  -0.000  -0.000
  0.030  -0.036   0.000  -3.590  -0.000  -0.000  -0.614   0.000
  0.000  -0.000   0.000  -0.000  -3.647  -0.000   0.000  -0.390
  0.000  -0.000  -0.390  -0.000  -0.000  50.901   0.000   0.000
  0.146  -0.265  -0.000  -0.614   0.000   0.000  51.409  -0.000
  0.000  -0.000  -0.000   0.000  -0.390   0.000  -0.000  50.901
 total augmentation occupancy for first ion, spin component:           1
  1.962   0.040  -0.000  -0.099  -0.000   0.000   0.048   0.000
  0.040   0.002   0.000   0.040   0.000   0.000   0.004   0.000
 -0.000   0.000   0.556   0.000   0.000   0.030   0.000   0.000
 -0.099   0.040   0.000   1.769  -0.000  -0.000   0.091  -0.000
 -0.000   0.000   0.000  -0.000   0.556   0.000   0.000   0.030
  0.000   0.000   0.030  -0.000   0.000   0.002   0.000   0.000
  0.048   0.004   0.000   0.091   0.000   0.000   0.007   0.000
  0.000   0.000   0.000  -0.000   0.030   0.000   0.000   0.002


------------------------ aborting loop because EDIFF is reached ----------------------------------------


    FORLOC:  cpu time      0.0009: real time      0.0009
    FORHF :  cpu time     20.6029: real time     20.7808
    FORNL :  cpu time      0.1853: real time      0.1869
    FORCOR:  cpu time      0.0248: real time      0.0249
    OFIELD:  cpu time      0.0001: real time      0.0001

 VOLUME and BASIS-vectors are now :
 -----------------------------------------------------------------------------
  energy-cutoff  :      500.00
  volume of cell :     1548.92
      direct lattice vectors                 reciprocal lattice vectors
     8.440984654  0.000000000  0.000000000     0.118469591  0.000000000  0.000000000
     0.000000000  8.440984654  0.000000000     0.000000000  0.118469591  0.000000000
     0.000000000  0.000000000 21.739138756     0.000000000  0.000000000  0.045999982

  length of vectors
     8.440984654  8.440984654 21.739138756     0.118469591  0.118469591  0.045999982


 FORCES acting on ions:
    Electron-Ion                     Ewald-Force                    Non-Local-Force
 -----------------------------------------------------------------------------------------------
   -.704E-04 -.763E-04 -.472E+01   -.192E-16 0.827E-16 -.198E+02   0.223E-21 -.990E-21 0.274E+02
   0.496E-04 0.119E+00 0.927E+03   -.942E-13 -.127E+00 -.919E+03   -.652E-21 0.427E-02 -.250E+01
   -.119E+00 -.618E-04 0.927E+03   0.127E+00 -.284E-13 -.919E+03   -.427E-02 0.136E-20 -.250E+01
   0.191E-04 -.115E-03 -.883E+03   -.143E-13 0.959E-13 0.876E+03   -.300E-20 0.480E-20 0.223E+01
   -.879E+00 0.879E+00 -.879E+03   0.691E+00 -.691E+00 0.872E+03   0.466E-01 -.466E-01 0.225E+01
   0.262E-03 -.119E+00 0.927E+03   -.852E-13 0.127E+00 -.919E+03   -.276E-20 -.427E-02 -.250E+01
   -.146E+01 0.227E-06 0.925E+03   0.154E+01 -.533E-14 -.916E+03   -.311E-01 0.435E-20 -.252E+01
   0.144E-03 0.921E-04 -.880E+03   0.178E-13 -.106E-13 0.873E+03   0.190E-21 -.575E-21 0.222E+01
   -.879E+00 -.879E+00 -.879E+03   0.691E+00 0.691E+00 0.872E+03   0.466E-01 0.466E-01 0.225E+01
   0.462E-04 0.146E+01 0.925E+03   0.551E-13 -.154E+01 -.916E+03   0.200E-20 0.311E-01 -.252E+01
   0.119E+00 -.941E-04 0.927E+03   -.127E+00 -.285E-13 -.919E+03   0.427E-02 0.311E-20 -.250E+01
   0.186E-03 -.457E-04 -.880E+03   -.107E-13 -.391E-13 0.873E+03   0.510E-21 -.913E-21 0.222E+01
   0.879E+00 0.879E+00 -.879E+03   -.691E+00 -.691E+00 0.872E+03   -.466E-01 -.466E-01 0.225E+01
   -.662E-04 -.146E+01 0.925E+03   0.142E-12 0.154E+01 -.916E+03   0.487E-20 -.311E-01 -.252E+01
   0.146E+01 0.134E-03 0.925E+03   -.154E+01 0.284E-13 -.916E+03   0.311E-01 0.133E-20 -.252E+01
   -.454E-04 0.355E-04 -.905E+03   0.604E-13 -.110E-16 0.897E+03   0.663E-21 -.519E-20 0.245E+01
   0.879E+00 -.879E+00 -.879E+03   -.691E+00 0.691E+00 0.872E+03   -.466E-01 0.466E-01 0.225E+01
   0.387E-03 0.829E-01 -.690E+03   0.371E-13 -.980E-01 0.695E+03   0.357E-20 0.918E-03 -.280E+01
   -.827E-01 0.227E-03 -.690E+03   0.980E-01 0.261E-14 0.695E+03   -.918E-03 0.276E-20 -.280E+01
   -.463E-04 0.357E-03 0.704E+03   0.830E-11 -.833E-11 -.707E+03   0.211E-20 -.383E-21 0.124E+01
   -.612E+00 0.611E+00 0.704E+03   0.582E+00 -.582E+00 -.707E+03   0.244E-01 -.244E-01 0.132E+01
   -.141E-03 -.828E-01 -.690E+03   0.817E-12 0.980E-01 0.695E+03   -.202E-20 -.918E-03 -.280E+01
   -.291E+01 0.158E-03 -.687E+03   0.256E+01 -.879E-13 0.692E+03   0.314E+00 -.148E-21 -.249E+01
   -.139E-03 -.405E-03 0.705E+03   -.881E-12 -.710E-14 -.709E+03   -.155E-20 -.366E-21 0.131E+01
   -.612E+00 -.612E+00 0.704E+03   0.582E+00 0.582E+00 -.707E+03   0.244E-01 0.244E-01 0.132E+01
   -.298E-03 0.291E+01 -.687E+03   -.675E-13 -.256E+01 0.692E+03   0.410E-21 -.314E+00 -.249E+01
   0.822E-01 0.661E-03 -.690E+03   -.980E-01 -.285E-13 0.695E+03   0.918E-03 -.179E-20 -.280E+01
   0.245E-03 0.333E-03 0.705E+03   -.156E-12 -.142E-13 -.709E+03   -.390E-21 0.710E-21 0.131E+01
   0.612E+00 0.612E+00 0.704E+03   -.582E+00 -.582E+00 -.707E+03   -.244E-01 -.244E-01 0.132E+01
   0.145E-03 -.291E+01 -.687E+03   -.214E-13 0.256E+01 0.692E+03   0.243E-21 0.314E+00 -.249E+01
   0.291E+01 -.287E-03 -.687E+03   -.256E+01 -.426E-13 0.692E+03   -.314E+00 -.358E-21 -.249E+01
   -.107E-03 -.225E-03 0.694E+03   0.853E-13 0.355E-13 -.697E+03   0.236E-20 0.324E-20 0.103E+01
   0.612E+00 -.612E+00 0.704E+03   -.582E+00 0.582E+00 -.707E+03   -.244E-01 0.244E-01 0.132E+01
   0.141E-03 -.560E-04 -.400E+03   0.318E-15 0.564E-15 0.454E+03   0.578E-20 -.630E-21 -.320E+02
 -----------------------------------------------------------------------------------------------
   0.191E-03 0.476E-03 0.551E+02   -.162E-12 0.110E-12 0.199E-11   0.382E-16 0.173E-16 -.176E+02
 
 
 POSITION                                       TOTAL-FORCE (eV/Angst)
 -----------------------------------------------------------------------------------
      4.22049      4.22049     15.09232         0.000000     -0.000000      5.686079
      0.00000      6.33023      5.50684         0.000000      0.003431      0.741025
      2.11076      0.00000      5.50684        -0.003431     -0.000000      0.741025
      0.00000      0.00000      7.61137         0.000000     -0.000000     -0.199328
      2.10905      6.33193      7.60762        -0.031090      0.031090     -0.189196
      0.00000      2.11076      5.50684         0.000000     -0.003431      0.741025
      2.11344      4.22049      5.50975        -0.009425     -0.000000      0.742988
      0.00000      4.22049      7.60860         0.000000     -0.000000     -0.182160
      2.10905      2.10905      7.60762        -0.031090     -0.031090     -0.189196
      4.22049      6.32754      5.50975         0.000000      0.009425      0.742988
      6.33023      0.00000      5.50684         0.003431     -0.000000      0.741025
      4.22049      0.00000      7.60860         0.000000     -0.000000     -0.182160
      6.33193      6.33193      7.60762         0.031090      0.031090     -0.189196
      4.22049      2.11344      5.50975         0.000000     -0.009425      0.742988
      6.32754      4.22049      5.50975         0.009425     -0.000000      0.742988
      4.22049      4.22049      7.65130         0.000000     -0.000000     -0.528285
      6.33193      2.10905      7.60762         0.031090     -0.031090     -0.189196
      0.00000      6.33258      7.65902         0.000000     -0.010685     -0.171827
      2.10840      0.00000      7.65902         0.010685     -0.000000     -0.171827
      0.00000      0.00000      5.50101         0.000000     -0.000000     -0.396573
      2.10979      6.33120      5.50206         0.010659     -0.010659     -0.386490
      0.00000      2.10840      7.65902         0.000000      0.010685     -0.171827
      2.10031      4.22049      7.65697         0.161335     -0.000000     -0.073963
      0.00000      4.22049      5.50000         0.000000     -0.000000     -0.384036
      2.10979      2.10979      5.50206         0.010659      0.010659     -0.386490
      4.22049      6.34068      7.65697         0.000000     -0.161335     -0.073963
      6.33258      0.00000      7.65902        -0.010685     -0.000000     -0.171827
      4.22049      0.00000      5.50000         0.000000     -0.000000     -0.384036
      6.33120      6.33120      5.50206        -0.010659     -0.010659     -0.386490
      4.22049      2.10031      7.65697         0.000000      0.161335     -0.073963
      6.34068      4.22049      7.65697        -0.161335     -0.000000     -0.073963
      4.22049      4.22049      5.51000         0.000000     -0.000000     -0.360872
      6.33120      2.10979      5.50206        -0.010659      0.010659     -0.386490
      4.22049      4.22049     16.23914         0.000000     -0.000000     -5.718777
 -----------------------------------------------------------------------------------
    total drift:                                0.000191      0.000476      0.085688


--------------------------------------------------------------------------------------------------------



  FREE ENERGIE OF THE ION-ELECTRON SYSTEM (eV)
  ---------------------------------------------------
  free  energy   TOTEN  =      -373.25470882 eV

  energy  without entropy=     -373.25470882  energy(sigma->0) =     -373.25470882
 


--------------------------------------------------------------------------------------------------------


    POTLOK:  cpu time      0.0263: real time      0.0294


--------------------------------------------------------------------------------------------------------


 writing wavefunctions
     LOOP+:  cpu time   2064.0801: real time   2083.9002
    4ORBIT:  cpu time      0.0000: real time      0.0000

 total amount of memory used by VASP MPI-rank0   229337. kBytes
=======================================================================

   base      :      30000. kBytes
   nonl-proj :      21041. kBytes
   fftplans  :       5105. kBytes
   grid      :       4257. kBytes
   one-center:        209. kBytes
   HF        :        290. kBytes
   nonlr-proj:       3332. kBytes
   wavefun   :       2901. kBytes
   fock_wrk  :     162202. kBytes
 
  
  
 General timing and accounting informations for this job:
 ========================================================
  
                  Total CPU time used (sec):     2069.536
                            User time (sec):     1999.903
                          System time (sec):       69.633
                         Elapsed time (sec):     2089.473
  
                   Maximum memory used (kb):     1206932.
                   Average memory used (kb):          N/A
  
                          Minor page faults:      4484239
                          Major page faults:            0
                 Voluntary context switches:        17175
