 vasp.6.3.0 20Jan22 (build Mar 11 2022 13:48:16) complex                        
  
 executed on             LinuxIFC date 2023.06.23  17:11:29
 running on  304 total cores
 distrk:  each k-point on  304 cores,    1 groups
 distr:  one band on NCORE=   1 cores,  304 groups


--------------------------------------------------------------------------------------------------------


 INCAR:
   SYSTEM = MgO-rocksalt
   ISMEAR = 0
   SIGMA = 0.05
   EDIFF = 1E-7
   POTIM = 0.5
   ALGO = ALL
   ISTART = 0
   IBRION = 2
   NSW = 1000
   ISYM = 2
   ISIF = 2
   EDIFFG = -0.01
   DIPOL = 0.5 0.5 0.5
   IDIPOL = 3
   LDIPOL = .TRUE.
   GGA = MK
   LUSE_VDW = .TRUE.
   PARAM1 = 0.1234
   PARAM2 = 0.711357
   ZAB_VDW = -1.8867
   AGGAC = 0.0
   ENCUT = 600
   PREC = Normal
   LASPH = .TRUE.
   LREAL = .FALSE.
   ISPIN = 1
   NELM = 200
   NELMIN = 1
   NCORE = 1
   KPAR = 1
   LWAVE = .FALSE.
   LCHARG = .FALSE.

 POTCAR:    PAW_PBE Mg_pv 13Apr2007               
 POTCAR:    PAW_PBE O 08Apr2002                   
 -----------------------------------------------------------------------------
|                                                                             |
|           W    W    AA    RRRRR   N    N  II  N    N   GGGG   !!!           |
|           W    W   A  A   R    R  NN   N  II  NN   N  G    G  !!!           |
|           W    W  A    A  R    R  N N  N  II  N N  N  G       !!!           |
|           W WW W  AAAAAA  RRRRR   N  N N  II  N  N N  G  GGG   !            |
|           WW  WW  A    A  R   R   N   NN  II  N   NN  G    G                |
|           W    W  A    A  R    R  N    N  II  N    N   GGGG   !!!           |
|                                                                             |
|     For optimal performance we recommend to set                             |
|       NCORE = 2 up to number-of-cores-per-socket                            |
|     NCORE specifies how many cores store one orbital (NPAR=cpu/NCORE).      |
|     This setting can greatly improve the performance of VASP for DFT.       |
|     The default, NCORE=1 might be grossly inefficient on modern             |
|     multi-core architectures or massively parallel machines. Do your        |
|     own testing! More info at https://www.vasp.at/wiki/index.php/NCORE      |
|     Unfortunately you need to use the default for GW and RPA                |
|     calculations (for HF NCORE is supported but not extensively tested      |
|     yet).                                                                   |
|                                                                             |
 -----------------------------------------------------------------------------

 -----------------------------------------------------------------------------
|                                                                             |
|               ----> ADVICE to this user running VASP <----                  |
|                                                                             |
|     You have switched on vdW-DFT.                                           |
|     This routine was written and supplied by Jiri Klimes. We recommend      |
|     that you carefully read and cite the following publications:            |
|       J. Klimes, D.R. Bowler, A. Michelides                                 |
|          J. Phys.: Cond Matt. 22 022201 (2010)                              |
|       J. Klimes, D.R. Bowler, A. Michelides                                 |
|          Phys. Rev. B. 83, 195131 (2011)                                    |
|     and references therein.                                                 |
|                                                                             |
 -----------------------------------------------------------------------------

 POTCAR:    PAW_PBE Mg_pv 13Apr2007               
   SHA256 =  f474ac0dd33840b9ae76c01d57fea79fdf77cdfbb07d5ade72c65f83c709b62b Mg_pv/POTCAR          
   COPYR  = (c) Copyright 13Apr2007 Georg Kresse                                                    
   COPYR  = This file is part of the software VASP. Any use, copying, and all other rights are regul
   COPYR  = If you do not have a valid VASP license, you may not use, copy or distribute this file. 
   VRHFIN =Mg: p6s2                                                                                 
   LEXCH  = PE                                                                                      
   EATOM  =  1056.7344 eV,   77.6678 Ry                                                             
                                                                                                    
   TITEL  = PAW_PBE Mg_pv 13Apr2007                                                                 
   LULTRA =        F    use ultrasoft PP ?                                                          
   IUNSCR =        1    unscreen: 0-lin 1-nonlin 2-no                                               
   RPACOR =    1.500    partial core radius                                                         
   POMASS =   24.305; ZVAL   =    8.000    mass and valenz                                          
   RCORE  =    2.000    outmost cutoff radius                                                       
   RWIGS  =    2.000; RWIGS  =    1.058    wigner-seitz radius (au A)                               
   ENMAX  =  403.929; ENMIN  =  302.947 eV                                                          
   RCLOC  =    1.506    cutoff for local pot                                                        
   LCOR   =        T    correct aug charges                                                         
   LPAW   =        T    paw PP                                                                      
   EAUG   =  758.780                                                                                
   DEXC   =    0.000                                                                                
   RMAX   =    2.045    core radius for proj-oper                                                   
   RAUG   =    1.300    factor for augmentation sphere                                              
   RDEP   =    2.025    radius for radial grids                                                     
   RDEPT  =    1.557    core radius for aug-charge                                                  
                                                                                                    
   Atomic configuration                                                                             
    5 entries                                                                                       
     n  l   j            E        occ.                                                              
     1  0  0.50     -1259.6230   2.0000                                                             
     2  0  0.50       -79.8442   2.0000                                                             
     2  1  1.50       -46.6121   6.0000                                                             
     3  0  0.50        -4.7055   2.0000                                                             
     3  2  1.50        -1.3606   0.0000                                                             
   Description                                                                                      
     l       E           TYP  RCUT    TYP  RCUT                                                     
     1    -46.6121073     23  1.600                                                                 
     1      2.7211652     23  1.600                                                                 
     0     -4.7054661     23  2.000                                                                 
     0     61.2262170     23  2.000                                                                 
     2     -1.3605826     23  2.000                                                                 
  local pseudopotential read in
  partial core-charges read in
  partial kinetic energy density read in
  atomic valenz-charges read in
  non local Contribution for L=           1  read in
    real space projection operators read in
  non local Contribution for L=           1  read in
    real space projection operators read in
  non local Contribution for L=           0  read in
    real space projection operators read in
  non local Contribution for L=           0  read in
    real space projection operators read in
  non local Contribution for L=           2  read in
    real space projection operators read in
    PAW grid and wavefunctions read in
 
   number of l-projection  operators is LMAX  =           5
   number of lm-projection operators is LMMAX =          13
 
 POTCAR:    PAW_PBE O 08Apr2002                   
   SHA256 =  818f92134a0a090dccd8ba1447fa70422a3b330e708bb4f08108d8ae51209ddf O/POTCAR              
   COPYR  = (c) Copyright 08Apr2002 Georg Kresse                                                    
   COPYR  = This file is part of the software VASP. Any use, copying, and all other rights are regul
   COPYR  = If you do not have a valid VASP license, you may not use, copy or distribute this file. 
   VRHFIN =O: s2p4                                                                                  
   LEXCH  = PE                                                                                      
   EATOM  =   432.3788 eV,   31.7789 Ry                                                             
                                                                                                    
   TITEL  = PAW_PBE O 08Apr2002                                                                     
   LULTRA =        F    use ultrasoft PP ?                                                          
   IUNSCR =        1    unscreen: 0-lin 1-nonlin 2-no                                               
   RPACOR =    1.200    partial core radius                                                         
   POMASS =   16.000; ZVAL   =    6.000    mass and valenz                                          
   RCORE  =    1.520    outmost cutoff radius                                                       
   RWIGS  =    1.550; RWIGS  =    0.820    wigner-seitz radius (au A)                               
   ENMAX  =  400.000; ENMIN  =  300.000 eV                                                          
   ICORE  =        2    local potential                                                             
   LCOR   =        T    correct aug charges                                                         
   LPAW   =        T    paw PP                                                                      
   EAUG   =  605.392                                                                                
   DEXC   =    0.000                                                                                
   RMAX   =    1.553    core radius for proj-oper                                                   
   RAUG   =    1.300    factor for augmentation sphere                                              
   RDEP   =    1.550    radius for radial grids                                                     
   RDEPT  =    1.329    core radius for aug-charge                                                  
                                                                                                    
   Atomic configuration                                                                             
    4 entries                                                                                       
     n  l   j            E        occ.                                                              
     1  0  0.50      -514.6923   2.0000                                                             
     2  0  0.50       -23.9615   2.0000                                                             
     2  1  0.50        -9.0305   4.0000                                                             
     3  2  1.50        -9.5241   0.0000                                                             
   Description                                                                                      
     l       E           TYP  RCUT    TYP  RCUT                                                     
     0    -23.9615318     23  1.200                                                                 
     0     -9.5240782     23  1.200                                                                 
     1     -9.0304911     23  1.520                                                                 
     1      8.1634956     23  1.520                                                                 
     2     -9.5240782      7  1.500                                                                 
  local pseudopotential read in
  partial core-charges read in
  partial kinetic energy density read in
  kinetic energy density of atom read in
  atomic valenz-charges read in
  non local Contribution for L=           0  read in
    real space projection operators read in
  non local Contribution for L=           0  read in
    real space projection operators read in
  non local Contribution for L=           1  read in
    real space projection operators read in
  non local Contribution for L=           1  read in
    real space projection operators read in
    PAW grid and wavefunctions read in
 
   number of l-projection  operators is LMAX  =           4
   number of lm-projection operators is LMMAX =           8
 
 -----------------------------------------------------------------------------
|                                                                             |
|               ----> ADVICE to this user running VASP <----                  |
|                                                                             |
|     You have a (more or less) 'large supercell' and for larger cells it     |
|     might be more efficient to use real-space projection operators.         |
|     Therefore, try LREAL= Auto in the INCAR file.                           |
|     Mind: For very accurate calculation, you might also keep the            |
|     reciprocal projection scheme (i.e. LREAL=.FALSE.).                      |
|                                                                             |
 -----------------------------------------------------------------------------

 -----------------------------------------------------------------------------
|                                                                             |
|               ----> ADVICE to this user running VASP <----                  |
|                                                                             |
|     You enforced a specific xc type in the INCAR file but a different       |
|     type was found in the POTCAR file.                                      |
|     I HOPE YOU KNOW WHAT YOU ARE DOING!                                     |
|                                                                             |
 -----------------------------------------------------------------------------

  PAW_PBE Mg_pv 13Apr2007               :
 energy of atom  1       EATOM=-1056.7344
 kinetic energy error for atom=    0.0221 (will be added to EATOM!!)
  PAW_PBE O 08Apr2002                   :
 energy of atom  2       EATOM= -432.3788
 kinetic energy error for atom=    0.0168 (will be added to EATOM!!)
 
 
 POSCAR: Mg  O
  positions in direct lattice
  No initial velocities read in
 exchange correlation table for  LEXCH =       43
   RHO(1)=    0.500       N(1)  =     2000
   RHO(2)=  100.500       N(2)  =     4000
 


--------------------------------------------------------------------------------------------------------


 ion  position               nearest neighbor table
   1  0.250  0.250  0.352-  21 2.11  22 2.11  23 2.11  24 2.11  17 2.11
   2  0.750  0.750  0.352-  21 2.11  22 2.11  23 2.11  24 2.11  18 2.11
   3  0.750  0.250  0.352-  21 2.11  22 2.11  23 2.11  24 2.11  19 2.11
   4  0.250  0.750  0.352-  21 2.11  22 2.11  23 2.11  24 2.11  20 2.11
   5  0.000  0.500  0.451-  17 2.11  18 2.11  19 2.11  20 2.11  29 2.11  21 2.11
   6  0.500  0.000  0.451-  17 2.11  18 2.11  19 2.11  20 2.11  30 2.11  22 2.11
   7  0.000  0.000  0.451-  17 2.11  18 2.11  19 2.11  20 2.11  31 2.11  23 2.11
   8  0.500  0.500  0.451-  17 2.11  18 2.11  19 2.11  20 2.11  32 2.11  24 2.11
   9  0.250  0.250  0.549-  25 2.11  29 2.11  30 2.11  31 2.11  32 2.11  17 2.11
  10  0.750  0.750  0.549-  26 2.11  29 2.11  30 2.11  31 2.11  32 2.11  18 2.11
  11  0.750  0.250  0.549-  27 2.11  29 2.11  30 2.11  31 2.11  32 2.11  19 2.11
  12  0.250  0.750  0.549-  28 2.11  29 2.11  30 2.11  31 2.11  32 2.11  20 2.11
  13  0.000  0.500  0.648-  29 2.11  26 2.11  27 2.11  28 2.11  25 2.11
  14  0.500  0.000  0.648-  30 2.11  26 2.11  27 2.11  28 2.11  25 2.11
  15  0.000  0.000  0.648-  31 2.11  26 2.11  27 2.11  28 2.11  25 2.11
  16  0.500  0.500  0.648-  32 2.11  26 2.11  27 2.11  28 2.11  25 2.11
  17  0.250  0.250  0.451-   5 2.11   6 2.11   7 2.11   8 2.11   9 2.11   1 2.11
  18  0.750  0.750  0.451-   5 2.11   6 2.11   7 2.11   8 2.11  10 2.11   2 2.11
  19  0.750  0.250  0.451-   5 2.11   6 2.11   7 2.11   8 2.11  11 2.11   3 2.11
  20  0.250  0.750  0.451-   5 2.11   6 2.11   7 2.11   8 2.11  12 2.11   4 2.11
  21  0.000  0.500  0.352-   1 2.11   2 2.11   3 2.11   4 2.11   5 2.11
  22  0.500  0.000  0.352-   1 2.11   2 2.11   3 2.11   4 2.11   6 2.11
  23  0.000  0.000  0.352-   1 2.11   2 2.11   3 2.11   4 2.11   7 2.11
  24  0.500  0.500  0.352-   1 2.11   2 2.11   3 2.11   4 2.11   8 2.11
  25  0.250  0.250  0.648-   9 2.11  13 2.11  14 2.11  15 2.11  16 2.11
  26  0.750  0.750  0.648-  10 2.11  13 2.11  14 2.11  15 2.11  16 2.11
  27  0.750  0.250  0.648-  11 2.11  13 2.11  14 2.11  15 2.11  16 2.11
  28  0.250  0.750  0.648-  12 2.11  13 2.11  14 2.11  15 2.11  16 2.11
  29  0.000  0.500  0.549-  13 2.11  10 2.11  11 2.11  12 2.11   9 2.11   5 2.11
  30  0.500  0.000  0.549-  14 2.11  10 2.11  11 2.11  12 2.11   9 2.11   6 2.11
  31  0.000  0.000  0.549-  15 2.11  10 2.11  11 2.11  12 2.11   9 2.11   7 2.11
  32  0.500  0.500  0.549-  16 2.11  10 2.11  11 2.11  12 2.11   9 2.11   8 2.11
 
  LATTYP: Found a simple tetragonal cell.
 ALAT       =     5.9683928490
 C/A-ratio  =     3.5738995817
  
  Lattice vectors:
  
 A1 = (   5.9683928490,   0.0000000000,   0.0000000000)
 A2 = (   0.0000000000,   5.9683928490,   0.0000000000)
 A3 = (   0.0000000000,   0.0000000000,  21.3304367065)


Analysis of symmetry for initial positions (statically):
=====================================================================
 Subroutine PRICEL returns following result:
 
  LATTYP: Found a simple tetragonal cell.
 ALAT       =     2.9841964245
 C/A-ratio  =     7.1477991634
  
  Lattice vectors:
  
 A1 = (   2.9841964245,   0.0000000000,   0.0000000000)
 A2 = (   0.0000000000,   2.9841964245,   0.0000000000)
 A3 = (   0.0000000000,   0.0000000000,  21.3304367065)
 
   4 primitive cells build up your supercell.
 

 Routine SETGRP: Setting up the symmetry group for a 
 simple tetragonal supercell.


 Subroutine GETGRP returns: Found 16 space group operations
 (whereof  8 operations were pure point group operations)
 out of a pool of 16 trial point group operations.


The static configuration has the point symmetry C_4v.
 The point group associated with its full space group is D_4h.


Analysis of symmetry for dynamics (positions and initial velocities):
=====================================================================
 Subroutine PRICEL returns following result:
 
  LATTYP: Found a simple tetragonal cell.
 ALAT       =     2.9841964245
 C/A-ratio  =     7.1477991634
  
  Lattice vectors:
  
 A1 = (   2.9841964245,   0.0000000000,   0.0000000000)
 A2 = (   0.0000000000,   2.9841964245,   0.0000000000)
 A3 = (   0.0000000000,   0.0000000000,  21.3304367065)
 
   4 primitive cells build up your supercell.
 

 Routine SETGRP: Setting up the symmetry group for a 
 simple tetragonal supercell.


 Subroutine GETGRP returns: Found 16 space group operations
 (whereof  8 operations were pure point group operations)
 out of a pool of 16 trial point group operations.


The dynamic configuration has the point symmetry C_4v.
 The point group associated with its full space group is D_4h.


Analysis of constrained symmetry for selective dynamics:
=====================================================================
 Subroutine PRICEL returns following result:
 
  LATTYP: Found a simple tetragonal cell.
 ALAT       =     2.9841964245
 C/A-ratio  =     7.1477991634
  
  Lattice vectors:
  
 A1 = (   2.9841964245,   0.0000000000,   0.0000000000)
 A2 = (   0.0000000000,   2.9841964245,   0.0000000000)
 A3 = (   0.0000000000,   0.0000000000,  21.3304367065)
 
   4 primitive cells build up your supercell.
 

 Routine SETGRP: Setting up the symmetry group for a 
 simple tetragonal supercell.


 Subroutine GETGRP returns: Found  8 space group operations
 (whereof  8 operations were pure point group operations)
 out of a pool of 16 trial point group operations.


The constrained configuration has the point symmetry C_4v.


 Subroutine INISYM returns: Found  8 space group operations
 (whereof  8 operations are pure point group operations),
 and found     4 'primitive' translations


----------------------------------------------------------------------------------------

                                     Primitive cell                                     

  volume of cell :     189.9567

  direct lattice vectors                    reciprocal lattice vectors
     2.984196424  0.000000000  0.000000000     0.335098585  0.000000000  0.000000000
     0.000000000  2.984196424  0.000000000     0.000000000  0.335098585  0.000000000
     0.000000000  0.000000000 21.330436706     0.000000000  0.000000000  0.046881366

  length of vectors
     2.984196424  2.984196424 21.330436706     0.335098585  0.335098585  0.046881366

  position of ions in fractional coordinates (direct lattice)
     0.500000000  0.500000000  0.351610243
     0.000000000  0.000000000  0.450536758
     0.500000000  0.500000000  0.549463272
     0.000000000  0.000000000  0.648389757
     0.500000000  0.500000000  0.450536758
     0.000000000  0.000000000  0.351610243
     0.500000000  0.500000000  0.648389757
     0.000000000  0.000000000  0.549463272

  ion indices of the primitive-cell ions
   primitive index   ion index
                 1           1
                 2           5
                 3           9
                 4          13
                 5          17
                 6          21
                 7          25
                 8          29

----------------------------------------------------------------------------------------

 
 
 KPOINTS: pymatgen v2020.8.13 with grid density = 

Automatic generation of k-mesh.
 Grid dimensions read from file:
 generate k-points for:    3    3    1

 Generating k-lattice:

  Cartesian coordinates                     Fractional coordinates (reciprocal lattice)
     0.055849764  0.000000000  0.000000000     0.333333333  0.000000000  0.000000000
     0.000000000  0.055849764  0.000000000     0.000000000  0.333333333  0.000000000
     0.000000000  0.000000000  0.046881366     0.000000000  0.000000000  1.000000000

  Length of vectors
     0.055849764  0.055849764  0.046881366

  Shift w.r.t. Gamma in fractional coordinates (k-lattice)
     0.000000000  0.000000000  0.000000000

 
 Subroutine IBZKPT returns following result:
 ===========================================
 
 Found      3 irreducible k-points:
 
 Following reciprocal coordinates:
            Coordinates               Weight
  0.000000  0.000000  0.000000      1.000000
  0.333333  0.000000  0.000000      4.000000
  0.333333  0.333333  0.000000      4.000000
 
 Following cartesian coordinates:
            Coordinates               Weight
  0.000000  0.000000  0.000000      1.000000
  0.055850  0.000000  0.000000      4.000000
  0.055850  0.055850  0.000000      4.000000
 


--------------------------------------------------------------------------------------------------------




 Dimension of arrays:
   k-points           NKPTS =      3   k-points in BZ     NKDIM =      3   number of bands    NBANDS=    304
   number of dos      NEDOS =    301   number of ions     NIONS =     32
   non local maximal  LDIM  =      5   non local SUM 2l+1 LMDIM =     13
   total plane-waves  NPLWV = 165888
   max r-space proj   IRMAX =      1   max aug-charges    IRDMAX=   4502
   dimension x,y,z NGX =    36 NGY =   36 NGZ =  128
   dimension x,y,z NGXF=    72 NGYF=   72 NGZF=  256
   support grid    NGXF=    72 NGYF=   72 NGZF=  256
   ions per type =              16  16
   NGX,Y,Z   is equivalent  to a cutoff of  10.03, 10.03,  9.98 a.u.
   NGXF,Y,Z  is equivalent  to a cutoff of  20.06, 20.06, 19.95 a.u.

 SYSTEM =  MgO-rocksalt                            
 POSCAR =  Mg  O                                   

 Startparameter for this run:
   NWRITE =      2    write-flag & timer
   PREC   = normal    normal or accurate (medium, high low for compatibility)
   ISTART =      0    job   : 0-new  1-cont  2-samecut
   ICHARG =      2    charge: 1-file 2-atom 10-const
   ISPIN  =      1    spin polarized calculation?
   LNONCOLLINEAR =      F non collinear calculations
   LSORBIT =      F    spin-orbit coupling
   INIWAV =      1    electr: 0-lowe 1-rand  2-diag
   LASPH  =      T    aspherical Exc in radial PAW
 Electronic Relaxation 1
   ENCUT  =  600.0 eV  44.10 Ry    6.64 a.u.  11.92 11.92 42.60*2*pi/ulx,y,z
   ENINI  =  600.0     initial cutoff
   ENAUG  =  758.8 eV  augmentation charge cutoff
   NELM   =    200;   NELMIN=  1; NELMDL= -5     # of ELM steps 
   EDIFF  = 0.1E-06   stopping-criterion for ELM
   LREAL  =      F    real-space projection
   NLSPLINE    = F    spline interpolate recip. space projectors
   LCOMPAT=      F    compatible to vasp.4.4
   GGA_COMPAT  = T    GGA compatible to vasp.4.4-vasp.4.6
   LMAXPAW     = -100 max onsite density
   LMAXMIX     =    2 max onsite mixed and CHGCAR
   VOSKOWN=      0    Vosko Wilk Nusair interpolation
   ROPT   =    0.00000   0.00000
 Ionic relaxation
   EDIFFG = -.1E-01   stopping-criterion for IOM
   NSW    =   1000    number of steps for IOM
   NBLOCK =      1;   KBLOCK =   1000    inner block; outer block 
   IBRION =      2    ionic relax: 0-MD 1-quasi-New 2-CG
   NFREE  =      1    steps in history (QN), initial steepest desc. (CG)
   ISIF   =      2    stress and relaxation
   IWAVPR =     11    prediction:  0-non 1-charg 2-wave 3-comb
   ISYM   =      2    0-nonsym 1-usesym 2-fastsym
   LCORR  =      T    Harris-Foulkes like correction to forces

   POTIM  = 0.5000    time-step for ionic-motion
   TEIN   =    0.0    initial temperature
   TEBEG  =    0.0;   TEEND  =   0.0 temperature during run
   SMASS  =  -3.00    Nose mass-parameter (am)
   estimated Nose-frequenzy (Omega)   =  0.10E-29 period in steps = 0.13E+47 mass=  -0.814E-27a.u.
   SCALEE = 1.0000    scale energy and forces
   NPACO  =    256;   APACO  = 10.0  distance and # of slots for P.C.
   PSTRESS=    0.0 pullay stress

  Mass of Ions in am
   POMASS =  24.30 16.00
  Ionic Valenz
   ZVAL   =   8.00  6.00
  Atomic Wigner-Seitz radii
   RWIGS  =  -1.00 -1.00
  virtual crystal weights 
   VCA    =   1.00  1.00
   NELECT =     224.0000    total number of electrons
   NUPDOWN=      -1.0000    fix difference up-down

 DOS related values:
   EMIN   =  10.00;   EMAX   =-10.00  energy-range for DOS
   EFERMI =   0.00
   ISMEAR =     0;   SIGMA  =   0.05  broadening in eV -4-tet -1-fermi 0-gaus

 Electronic relaxation 2 (details)
   IALGO  =     58    algorithm
   LDIAG  =      T    sub-space diagonalisation (order eigenvalues)
   LSUBROT=      F    optimize rotation matrix (better conditioning)
   TURBO    =      0    0=normal 1=particle mesh
   IRESTART =      0    0=no restart 2=restart with 2 vectors
   NREBOOT  =      0    no. of reboots
   NMIN     =      0    reboot dimension
   EREF     =   0.00    reference energy to select bands
   IMIX   =      4    mixing-type and parameters
     AMIX     =   0.40;   BMIX     =  1.00
     AMIX_MAG =   1.60;   BMIX_MAG =  1.00
     AMIN     =   0.10
     WC   =   100.;   INIMIX=   1;  MIXPRE=   1;  MAXMIX= -45

 Intra band minimization:
   WEIMIN = 0.0010     energy-eigenvalue tresh-hold
   EBREAK =  0.82E-10  absolut break condition
   DEPER  =   0.30     relativ break condition  

   TIME   =   0.40     timestep for ELM

  volume/ion in A,a.u.               =      23.74       160.24
  Fermi-wavevector in a.u.,A,eV,Ry     =   1.089564  2.058977 16.152146  1.187149
  Thomas-Fermi vector in A             =   2.225770
 
 Write flags
   LWAVE        =      F    write WAVECAR
   LDOWNSAMPLE  =      F    k-point downsampling of WAVECAR
   LCHARG       =      F    write CHGCAR
   LVTOT        =      F    write LOCPOT, total local potential
   LVHAR        =      F    write LOCPOT, Hartree potential only
   LELF         =      F    write electronic localiz. function (ELF)
   LORBIT       =      0    0 simple, 1 ext, 2 COOP (PROOUT), +10 PAW based schemes


 Dipole corrections
   LMONO  =      F    monopole corrections only (constant potential shift)
   LDIPOL =      T    correct potential (dipole corrections)
   IDIPOL =      3    1-x, 2-y, 3-z, 4-all directions 
   EPSILON=  1.0000000 bulk dielectric constant

 Exchange correlation treatment:
   GGA     =    MK    GGA type
   LEXCH   =    43    internal setting for exchange type
   LIBXC   =     F    Libxc                    
   VOSKOWN =     0    Vosko Wilk Nusair interpolation
   LHFCALC =     F    Hartree Fock is set to
   LHFONE  =     F    Hartree Fock one center treatment
   AEXX    =    0.0000 exact exchange contribution

 vdW DFT:
   LUSE_VDW   =     T    switch on vdW DFT
   Zab_VDW    =******    correlation parameter
   PARAM1     =0.1234
   PARAM2     =0.7114
   PARAM3     =0.0000
   -- rVV10 --
   BPARAM     = 6.3000
   CPARAM     = 0.0093

 Linear response parameters
   LEPSILON=     F    determine dielectric tensor
   LRPA    =     F    only Hartree local field effects (RPA)
   LNABLA  =     F    use nabla operator in PAW spheres
   LVEL    =     F    velocity operator in full k-point grid
   CSHIFT  =0.1000    complex shift for real part using Kramers Kronig
   OMEGAMAX=  -1.0    maximum frequency
   DEG_THRESHOLD= 0.2000000E-02 threshold for treating states as degnerate
   RTIME   =   -0.100 relaxation time in fs
  (WPLASMAI=    0.000 imaginary part of plasma frequency in eV, 0.658/RTIME)
   DFIELD  = 0.0000000 0.0000000 0.0000000 field for delta impulse in time
 
  Optional k-point grid parameters
   LKPOINTS_OPT  =     F    use optional k-point grid
   KPOINTS_OPT_MODE=     1    mode for optional k-point grid
 
 Orbital magnetization related:
   ORBITALMAG=     F  switch on orbital magnetization
   LCHIMAG   =     F  perturbation theory with respect to B field
   DQ        =  0.001000  dq finite difference perturbation B field
   LLRAUG    =     F  two centre corrections for induced B field



--------------------------------------------------------------------------------------------------------


 conjugate gradient relaxation of ions
   using selective dynamics as specified on POSCAR
 charge density and potential will be updated during run
 non-spin polarized calculation
 Conjugate gradient for all bands (Freysoldt, et al. PRB 79, 241103 (2009))
 preconditioned conjugated gradient                                        
 perform sub-space diagonalisation
    before iterative eigenvector-optimisation
 modified Broyden-mixing scheme, WC =      100.0
 initial mixing is a Kerker type mixing with AMIX =  0.4000 and BMIX =      1.0000
 Hartree-type preconditioning will be used
 using additional bands          192
 reciprocal scheme for non local part
 use partial core corrections
 no Harris-corrections to forces 
 use gradient corrections 
 use of overlap-Matrix (Vanderbilt PP)
 Gauss-broadening in eV      SIGMA  =   0.05


--------------------------------------------------------------------------------------------------------


  energy-cutoff  :      600.00
  volume of cell :      759.83
      direct lattice vectors                 reciprocal lattice vectors
     5.968392849  0.000000000  0.000000000     0.167549293  0.000000000  0.000000000
     0.000000000  5.968392849  0.000000000     0.000000000  0.167549293  0.000000000
     0.000000000  0.000000000 21.330436706     0.000000000  0.000000000  0.046881366

  length of vectors
     5.968392849  5.968392849 21.330436706     0.167549293  0.167549293  0.046881366


 
 k-points in units of 2pi/SCALE and weight: pymatgen v2020.8.13 with grid density = 
   0.00000000  0.00000000  0.00000000       0.111
   0.05584976  0.00000000  0.00000000       0.444
   0.05584976  0.05584976  0.00000000       0.444
 
 k-points in reciprocal lattice and weights: pymatgen v2020.8.13 with grid density = 
   0.00000000  0.00000000  0.00000000       0.111
   0.33333333  0.00000000  0.00000000       0.444
   0.33333333  0.33333333  0.00000000       0.444
 
 position of ions in fractional coordinates (direct lattice) 
   0.25000000  0.25000000  0.35161024
   0.75000000  0.75000000  0.35161024
   0.75000000  0.25000000  0.35161024
   0.25000000  0.75000000  0.35161024
   0.00000000  0.50000000  0.45053676
   0.50000000  0.00000000  0.45053676
   0.00000000  0.00000000  0.45053676
   0.50000000  0.50000000  0.45053676
   0.25000000  0.25000000  0.54946327
   0.75000000  0.75000000  0.54946327
   0.75000000  0.25000000  0.54946327
   0.25000000  0.75000000  0.54946327
   0.00000000  0.50000000  0.64838976
   0.50000000  0.00000000  0.64838976
   0.00000000  0.00000000  0.64838976
   0.50000000  0.50000000  0.64838976
   0.25000000  0.25000000  0.45053676
   0.75000000  0.75000000  0.45053676
   0.75000000  0.25000000  0.45053676
   0.25000000  0.75000000  0.45053676
   0.00000000  0.50000000  0.35161024
   0.50000000  0.00000000  0.35161024
   0.00000000  0.00000000  0.35161024
   0.50000000  0.50000000  0.35161024
   0.25000000  0.25000000  0.64838976
   0.75000000  0.75000000  0.64838976
   0.75000000  0.25000000  0.64838976
   0.25000000  0.75000000  0.64838976
   0.00000000  0.50000000  0.54946327
   0.50000000  0.00000000  0.54946327
   0.00000000  0.00000000  0.54946327
   0.50000000  0.50000000  0.54946327
 
 position of ions in cartesian coordinates  (Angst):
   1.49209821  1.49209821  7.50000003
   4.47629464  4.47629464  7.50000003
   4.47629464  1.49209821  7.50000003
   1.49209821  4.47629464  7.50000003
   0.00000000  2.98419642  9.61014580
   2.98419642  0.00000000  9.61014580
   0.00000000  0.00000000  9.61014580
   2.98419642  2.98419642  9.61014580
   1.49209821  1.49209821 11.72029155
   4.47629464  4.47629464 11.72029155
   4.47629464  1.49209821 11.72029155
   1.49209821  4.47629464 11.72029155
   0.00000000  2.98419642 13.83043667
   2.98419642  0.00000000 13.83043667
   0.00000000  0.00000000 13.83043667
   2.98419642  2.98419642 13.83043667
   1.49209821  1.49209821  9.61014580
   4.47629464  4.47629464  9.61014580
   4.47629464  1.49209821  9.61014580
   1.49209821  4.47629464  9.61014580
   0.00000000  2.98419642  7.50000003
   2.98419642  0.00000000  7.50000003
   0.00000000  0.00000000  7.50000003
   2.98419642  2.98419642  7.50000003
   1.49209821  1.49209821 13.83043667
   4.47629464  4.47629464 13.83043667
   4.47629464  1.49209821 13.83043667
   1.49209821  4.47629464 13.83043667
   0.00000000  2.98419642 11.72029155
   2.98419642  0.00000000 11.72029155
   0.00000000  0.00000000 11.72029155
   2.98419642  2.98419642 11.72029155
 


--------------------------------------------------------------------------------------------------------


 k-point   1 :   0.0000 0.0000 0.0000  plane waves:   25313
 k-point   2 :   0.3333 0.0000 0.0000  plane waves:   25358
 k-point   3 :   0.3333 0.3333 0.0000  plane waves:   25413

 maximum and minimum number of plane-waves per node :     25413    25313

 maximum number of plane-waves:     25413
 maximum index in each direction: 
   IXMAX=   11   IYMAX=   11   IZMAX=   42
   IXMIN=  -12   IYMIN=  -12   IZMIN=  -42


 serial   3D FFT for wavefunctions
 parallel 3D FFT for charge:
    minimum data exchange during FFTs selected (reduces bandwidth)


 total amount of memory used by VASP MPI-rank0    72001. kBytes
=======================================================================

   base      :      30000. kBytes
   nonl-proj :      29008. kBytes
   fftplans  :       1278. kBytes
   grid      :       7694. kBytes
   one-center:        259. kBytes
   wavefun   :       3762. kBytes
 
     INWAV:  cpu time      0.0001: real time      0.0003
 Broyden mixing: mesh for mixing (old mesh)
   NGX = 23   NGY = 23   NGZ = 85
  (NGX  = 72   NGY  = 72   NGZ  =256)
  gives a total of  44965 points

 initial charge density was supplied:
 charge density of overlapping atoms calculated
 number of electron     224.0000000 magnetization 
 keeping initial charge density in first step


--------------------------------------------------------------------------------------------------------


 Maximum index for augmentation-charges          310 (set IRDMAX)


--------------------------------------------------------------------------------------------------------


 First call to EWALD:  gamma=   0.194
 Maximum number of real-space cells 4x 4x 1
 Maximum number of reciprocal cells 2x 2x 6

    FEWALD:  cpu time      0.0010: real time      0.0010


--------------------------------------- Iteration      1(   1)  ---------------------------------------


vdW kernel read from vdw_kernel.bindat
  0.0000  0.2424  0.5071  0.7962  1.1119  1.4567  1.8333  2.2446  2.6937  3.1842
  3.7199  4.3049  4.9438  5.6415  6.4036  7.2358  8.1446  9.1372 10.2212 11.4050
 12.6979 14.1099 15.6519 17.3360 19.1751 21.1837 23.3773 25.7729 28.3892 31.2465
 34.3669 37.7748 41.4965 45.5611 50.0000
 
    POTLOK:  cpu time      0.2784: real time      0.3217
    SETDIJ:  cpu time      0.0908: real time      0.0928
    TRIAL :  cpu time      2.9411: real time      2.9742
    CORREC:  cpu time      0.0006: real time      0.0006
    --------------------------------------------
      LOOP:  cpu time      3.3137: real time      3.4040

 eigenvalue-minimisations  :  1824
 total energy-change (2. order) : 0.7164375E+03  (-0.1642389E+05)
 number of electron     224.0000000 magnetization 
 augmentation part      224.0000000 magnetization 

 DIPCOR: dipole corrections for dipol
 direction  3 min pos     1,
 dipolmoment           0.000000      0.000000     -0.000000 electrons x Angstroem
 Tr[quadrupol]     -1485.881835

 energy correction for charged system         0.000000 eV
 dipol+quadrupol energy correction           -0.000000 eV
 added-field ion interaction          0.000000 eV  (added to PSCEN)


 Free energy of the ion-electron system (eV)
  ---------------------------------------------------
  alpha Z        PSCENC =       437.67757786
  Ewald energy   TEWEN  =     70721.61093633
  -Hartree energ DENC   =    -88469.99582266
  -exchange      EXHF   =         0.00000000
  -V(xc)+E(xc)   XCENC  =       872.45669439
  PAW double counting   =     15941.91276636   -17841.51476328
  entropy T*S    EENTRO =        -0.00000001
  eigenvalues    EBANDS =     -4837.64912139
  atomic energy  EATOM  =     23891.93920109
  ---------------------------------------------------
  free energy    TOTEN  =       716.43746870 eV

  energy without entropy =      716.43746871  energy(sigma->0) =      716.43746870


--------------------------------------------------------------------------------------------------------




--------------------------------------- Iteration      1(   2)  ---------------------------------------


    TRIAL :  cpu time      6.5353: real time      6.5566
    CORREC:  cpu time      0.0001: real time      0.0001
    --------------------------------------------
      LOOP:  cpu time      6.5362: real time      6.5607

 eigenvalue-minimisations  :  2736
 total energy-change (2. order) :-0.8737508E+03  (-0.8737508E+03)
 number of electron     224.0000000 magnetization 
 augmentation part      224.0000000 magnetization 

 DIPCOR: dipole corrections for dipol
 direction  3 min pos     1,
 dipolmoment           0.000000      0.000000     -0.000000 electrons x Angstroem
 Tr[quadrupol]     -1485.881835

 energy correction for charged system         0.000000 eV
 dipol+quadrupol energy correction           -0.000000 eV
 added-field ion interaction          0.000000 eV  (added to PSCEN)


 Free energy of the ion-electron system (eV)
  ---------------------------------------------------
  alpha Z        PSCENC =       437.67757786
  Ewald energy   TEWEN  =     70721.61093633
  -Hartree energ DENC   =    -88469.99582266
  -exchange      EXHF   =         0.00000000
  -V(xc)+E(xc)   XCENC  =       872.45669439
  PAW double counting   =     15941.91276636   -17841.51476328
  entropy T*S    EENTRO =        -0.00000000
  eigenvalues    EBANDS =     -5711.39995622
  atomic energy  EATOM  =     23891.93920109
  ---------------------------------------------------
  free energy    TOTEN  =      -157.31336612 eV

  energy without entropy =     -157.31336612  energy(sigma->0) =     -157.31336612


--------------------------------------------------------------------------------------------------------




--------------------------------------- Iteration      1(   3)  ---------------------------------------


    TRIAL :  cpu time      4.0126: real time      4.0272
    CORREC:  cpu time      0.0001: real time      0.0001
    --------------------------------------------
      LOOP:  cpu time      4.0144: real time      4.0305

 eigenvalue-minimisations  :  2128
 total energy-change (2. order) :-0.7259636E+01  (-0.7259636E+01)
 number of electron     224.0000000 magnetization 
 augmentation part      224.0000000 magnetization 

 DIPCOR: dipole corrections for dipol
 direction  3 min pos     1,
 dipolmoment           0.000000      0.000000     -0.000000 electrons x Angstroem
 Tr[quadrupol]     -1485.881835

 energy correction for charged system         0.000000 eV
 dipol+quadrupol energy correction           -0.000000 eV
 added-field ion interaction          0.000000 eV  (added to PSCEN)


 Free energy of the ion-electron system (eV)
  ---------------------------------------------------
  alpha Z        PSCENC =       437.67757786
  Ewald energy   TEWEN  =     70721.61093633
  -Hartree energ DENC   =    -88469.99582266
  -exchange      EXHF   =         0.00000000
  -V(xc)+E(xc)   XCENC  =       872.45669439
  PAW double counting   =     15941.91276636   -17841.51476328
  entropy T*S    EENTRO =        -0.00000000
  eigenvalues    EBANDS =     -5718.65959264
  atomic energy  EATOM  =     23891.93920109
  ---------------------------------------------------
  free energy    TOTEN  =      -164.57300255 eV

  energy without entropy =     -164.57300255  energy(sigma->0) =     -164.57300255


--------------------------------------------------------------------------------------------------------




--------------------------------------- Iteration      1(   4)  ---------------------------------------


    TRIAL :  cpu time     13.0352: real time     13.1005
    CORREC:  cpu time      0.0001: real time      0.0001
    --------------------------------------------
      LOOP:  cpu time     13.0372: real time     13.1042

 eigenvalue-minimisations  :  3648
 total energy-change (2. order) :-0.3334109E-01  (-0.3334109E-01)
 number of electron     224.0000000 magnetization 
 augmentation part      224.0000000 magnetization 

 DIPCOR: dipole corrections for dipol
 direction  3 min pos     1,
 dipolmoment           0.000000      0.000000     -0.000000 electrons x Angstroem
 Tr[quadrupol]     -1485.881835

 energy correction for charged system         0.000000 eV
 dipol+quadrupol energy correction           -0.000000 eV
 added-field ion interaction          0.000000 eV  (added to PSCEN)


 Free energy of the ion-electron system (eV)
  ---------------------------------------------------
  alpha Z        PSCENC =       437.67757786
  Ewald energy   TEWEN  =     70721.61093633
  -Hartree energ DENC   =    -88469.99582266
  -exchange      EXHF   =         0.00000000
  -V(xc)+E(xc)   XCENC  =       872.45669439
  PAW double counting   =     15941.91276636   -17841.51476328
  entropy T*S    EENTRO =        -0.00000000
  eigenvalues    EBANDS =     -5718.69293373
  atomic energy  EATOM  =     23891.93920109
  ---------------------------------------------------
  free energy    TOTEN  =      -164.60634363 eV

  energy without entropy =     -164.60634363  energy(sigma->0) =     -164.60634363


--------------------------------------------------------------------------------------------------------




--------------------------------------- Iteration      1(   5)  ---------------------------------------


    TRIAL :  cpu time      2.8843: real time      2.8946
    CORREC:  cpu time      0.0001: real time      0.0001
    CHARGE:  cpu time      0.0375: real time      0.0378
    --------------------------------------------
      LOOP:  cpu time      2.9241: real time      2.9362

 eigenvalue-minimisations  :  1824
 total energy-change (2. order) :-0.1392589E-05  (-0.1392563E-05)
 number of electron     223.9999986 magnetization 
 augmentation part       79.4396018 magnetization 

 DIPCOR: dipole corrections for dipol
 direction  3 min pos     1,
 dipolmoment           0.000000      0.000000     -0.000000 electrons x Angstroem
 Tr[quadrupol]     -1485.881835

 energy correction for charged system         0.000000 eV
 dipol+quadrupol energy correction           -0.000000 eV
 added-field ion interaction          0.000000 eV  (added to PSCEN)


 Free energy of the ion-electron system (eV)
  ---------------------------------------------------
  alpha Z        PSCENC =       437.67757786
  Ewald energy   TEWEN  =     70721.61093633
  -Hartree energ DENC   =    -88469.99582266
  -exchange      EXHF   =         0.00000000
  -V(xc)+E(xc)   XCENC  =       872.45669439
  PAW double counting   =     15941.91276636   -17841.51476328
  entropy T*S    EENTRO =        -0.00000000
  eigenvalues    EBANDS =     -5718.69293512
  atomic energy  EATOM  =     23891.93920109
  ---------------------------------------------------
  free energy    TOTEN  =      -164.60634503 eV

  energy without entropy =     -164.60634503  energy(sigma->0) =     -164.60634503


--------------------------------------------------------------------------------------------------------




--------------------------------------- Iteration      1(   6)  ---------------------------------------


    POTLOK:  cpu time      0.1056: real time      0.1060
    SETDIJ:  cpu time      0.0827: real time      0.0830
    TRIAL :  cpu time      0.4298: real time      0.4561
    CORREC:  cpu time      0.4130: real time      0.4153
    CHARGE:  cpu time      0.0275: real time      0.0276
    --------------------------------------------
      LOOP:  cpu time      1.0605: real time      1.0913

 eigenvalue-minimisations  :     0
 total energy-change (2. order) : 0.8864852E+02  (-0.4941338E+02)
 number of electron     224.0000042 magnetization 
 augmentation part       77.6461995 magnetization 

 DIPCOR: dipole corrections for dipol
 direction  3 min pos     1,
 dipolmoment           0.000000      0.000000      0.000106 electrons x Angstroem
 Tr[quadrupol]     -1513.664927

 energy correction for charged system         0.000000 eV
 dipol+quadrupol energy correction           -0.000000 eV
 added-field ion interaction         -0.000000 eV  (added to PSCEN)


 Free energy of the ion-electron system (eV)
  ---------------------------------------------------
  alpha Z        PSCENC =       437.67757786
  Ewald energy   TEWEN  =     70721.61093633
  -Hartree energ DENC   =    -90467.46561502
  -exchange      EXHF   =         0.00000000
  -V(xc)+E(xc)   XCENC  =       933.74812792
  PAW double counting   =     18063.23687084   -19936.05425427
  entropy T*S    EENTRO =        -0.00000000
  eigenvalues    EBANDS =     -3720.65066787
  atomic energy  EATOM  =     23891.93920109
  ---------------------------------------------------
  free energy    TOTEN  =       -75.95782311 eV

  energy without entropy =      -75.95782311  energy(sigma->0) =      -75.95782311


--------------------------------------------------------------------------------------------------------




--------------------------------------- Iteration      1(   7)  ---------------------------------------


    POTLOK:  cpu time      0.0965: real time      0.0968
    SETDIJ:  cpu time      0.0828: real time      0.0831
    TRIAL :  cpu time      0.3778: real time      0.3797
    CORREC:  cpu time      0.3980: real time      0.3993
    CHARGE:  cpu time      0.0276: real time      0.0277
    --------------------------------------------
      LOOP:  cpu time      0.9836: real time      0.9899

 eigenvalue-minimisations  :     0
 total energy-change (2. order) :-0.4904765E+02  (-0.6089661E+01)
 number of electron     224.0000050 magnetization 
 augmentation part       76.8770090 magnetization 

 DIPCOR: dipole corrections for dipol
 direction  3 min pos     1,
 dipolmoment           0.000000      0.000000      0.000058 electrons x Angstroem
 Tr[quadrupol]     -1508.405435

 energy correction for charged system         0.000000 eV
 dipol+quadrupol energy correction           -0.000000 eV
 added-field ion interaction         -0.000000 eV  (added to PSCEN)


 Free energy of the ion-electron system (eV)
  ---------------------------------------------------
  alpha Z        PSCENC =       437.67757785
  Ewald energy   TEWEN  =     70721.61093633
  -Hartree energ DENC   =    -89600.24367505
  -exchange      EXHF   =         0.00000000
  -V(xc)+E(xc)   XCENC  =       898.18203511
  PAW double counting   =     17700.82729002   -19595.68124735
  entropy T*S    EENTRO =        -0.00000000
  eigenvalues    EBANDS =     -4579.31758876
  atomic energy  EATOM  =     23891.93920109
  ---------------------------------------------------
  free energy    TOTEN  =      -125.00547075 eV

  energy without entropy =     -125.00547075  energy(sigma->0) =     -125.00547075


--------------------------------------------------------------------------------------------------------




--------------------------------------- Iteration      1(   8)  ---------------------------------------


    POTLOK:  cpu time      0.0984: real time      0.0987
    SETDIJ:  cpu time      0.0820: real time      0.0822
    TRIAL :  cpu time      0.3824: real time      0.3840
    CORREC:  cpu time      0.4023: real time      0.4038
    CHARGE:  cpu time      0.0277: real time      0.0278
    --------------------------------------------
      LOOP:  cpu time      0.9943: real time      0.9998

 eigenvalue-minimisations  :     0
 total energy-change (2. order) :-0.5918652E+01  (-0.1193901E+01)
 number of electron     224.0000050 magnetization 
 augmentation part       77.1607329 magnetization 

 DIPCOR: dipole corrections for dipol
 direction  3 min pos     1,
 dipolmoment           0.000000      0.000000     -0.000066 electrons x Angstroem
 Tr[quadrupol]     -1502.183685

 energy correction for charged system         0.000000 eV
 dipol+quadrupol energy correction           -0.000000 eV
 added-field ion interaction          0.000000 eV  (added to PSCEN)


 Free energy of the ion-electron system (eV)
  ---------------------------------------------------
  alpha Z        PSCENC =       437.67757786
  Ewald energy   TEWEN  =     70721.61093633
  -Hartree energ DENC   =    -89309.65472270
  -exchange      EXHF   =         0.00000000
  -V(xc)+E(xc)   XCENC  =       892.91249263
  PAW double counting   =     17424.86744389   -19302.26541761
  entropy T*S    EENTRO =        -0.00000000
  eigenvalues    EBANDS =     -4888.01163448
  atomic energy  EATOM  =     23891.93920109
  ---------------------------------------------------
  free energy    TOTEN  =      -130.92412299 eV

  energy without entropy =     -130.92412299  energy(sigma->0) =     -130.92412299


--------------------------------------------------------------------------------------------------------




--------------------------------------- Iteration      1(   9)  ---------------------------------------


    POTLOK:  cpu time      0.0988: real time      0.0992
    SETDIJ:  cpu time      0.0837: real time      0.0839
    TRIAL :  cpu time      0.3991: real time      0.4006
    CORREC:  cpu time      0.4028: real time      0.4039
    CHARGE:  cpu time      0.0281: real time      0.0282
    --------------------------------------------
      LOOP:  cpu time      1.0137: real time      1.0193

 eigenvalue-minimisations  :     0
 total energy-change (2. order) :-0.1191437E+01  (-0.2066767E+00)
 number of electron     224.0000049 magnetization 
 augmentation part       77.2456549 magnetization 

 DIPCOR: dipole corrections for dipol
 direction  3 min pos     1,
 dipolmoment           0.000000      0.000000     -0.000055 electrons x Angstroem
 Tr[quadrupol]     -1502.182515

 energy correction for charged system         0.000000 eV
 dipol+quadrupol energy correction           -0.000000 eV
 added-field ion interaction          0.000000 eV  (added to PSCEN)


 Free energy of the ion-electron system (eV)
  ---------------------------------------------------
  alpha Z        PSCENC =       437.67757786
  Ewald energy   TEWEN  =     70721.61093633
  -Hartree energ DENC   =    -89233.74803308
  -exchange      EXHF   =         0.00000000
  -V(xc)+E(xc)   XCENC  =       893.12420209
  PAW double counting   =     17352.44709440   -19246.92949144
  entropy T*S    EENTRO =        -0.00000000
  eigenvalues    EBANDS =     -4948.23704683
  atomic energy  EATOM  =     23891.93920109
  ---------------------------------------------------
  free energy    TOTEN  =      -132.11555957 eV

  energy without entropy =     -132.11555957  energy(sigma->0) =     -132.11555957


--------------------------------------------------------------------------------------------------------




--------------------------------------- Iteration      1(  10)  ---------------------------------------


    POTLOK:  cpu time      0.1006: real time      0.1010
    SETDIJ:  cpu time      0.0823: real time      0.0825
    TRIAL :  cpu time      0.3779: real time      0.3795
    CORREC:  cpu time      0.3987: real time      0.4000
    CHARGE:  cpu time      0.0278: real time      0.0279
    --------------------------------------------
      LOOP:  cpu time      0.9881: real time      0.9944

 eigenvalue-minimisations  :     0
 total energy-change (2. order) :-0.2066659E+00  (-0.4823838E-01)
 number of electron     224.0000048 magnetization 
 augmentation part       77.2554057 magnetization 

 DIPCOR: dipole corrections for dipol
 direction  3 min pos     1,
 dipolmoment           0.000000      0.000000     -0.000013 electrons x Angstroem
 Tr[quadrupol]     -1502.734326

 energy correction for charged system         0.000000 eV
 dipol+quadrupol energy correction           -0.000000 eV
 added-field ion interaction          0.000000 eV  (added to PSCEN)


 Free energy of the ion-electron system (eV)
  ---------------------------------------------------
  alpha Z        PSCENC =       437.67757786
  Ewald energy   TEWEN  =     70721.61093633
  -Hartree energ DENC   =    -89251.48193589
  -exchange      EXHF   =         0.00000000
  -V(xc)+E(xc)   XCENC  =       893.23504800
  PAW double counting   =     17337.62760139   -19233.14957855
  entropy T*S    EENTRO =        -0.00000000
  eigenvalues    EBANDS =     -4929.78107566
  atomic energy  EATOM  =     23891.93920109
  ---------------------------------------------------
  free energy    TOTEN  =      -132.32222543 eV

  energy without entropy =     -132.32222543  energy(sigma->0) =     -132.32222543


--------------------------------------------------------------------------------------------------------




--------------------------------------- Iteration      1(  11)  ---------------------------------------


    POTLOK:  cpu time      0.1006: real time      0.1010
    SETDIJ:  cpu time      0.0828: real time      0.0830
    TRIAL :  cpu time      0.3763: real time      0.3780
    CORREC:  cpu time      0.3968: real time      0.3981
    CHARGE:  cpu time      0.0277: real time      0.0278
    --------------------------------------------
      LOOP:  cpu time      0.9857: real time      0.9912

 eigenvalue-minimisations  :     0
 total energy-change (2. order) :-0.4825096E-01  (-0.1042238E-01)
 number of electron     224.0000048 magnetization 
 augmentation part       77.2534706 magnetization 

 DIPCOR: dipole corrections for dipol
 direction  3 min pos     1,
 dipolmoment           0.000000      0.000000      0.000009 electrons x Angstroem
 Tr[quadrupol]     -1503.041508

 energy correction for charged system         0.000000 eV
 dipol+quadrupol energy correction           -0.000000 eV
 added-field ion interaction         -0.000000 eV  (added to PSCEN)


 Free energy of the ion-electron system (eV)
  ---------------------------------------------------
  alpha Z        PSCENC =       437.67757786
  Ewald energy   TEWEN  =     70721.61093633
  -Hartree energ DENC   =    -89277.51080839
  -exchange      EXHF   =         0.00000000
  -V(xc)+E(xc)   XCENC  =       893.31332025
  PAW double counting   =     17329.31967145   -19223.37010747
  entropy T*S    EENTRO =        -0.00000000
  eigenvalues    EBANDS =     -4905.35026752
  atomic energy  EATOM  =     23891.93920109
  ---------------------------------------------------
  free energy    TOTEN  =      -132.37047640 eV

  energy without entropy =     -132.37047640  energy(sigma->0) =     -132.37047640


--------------------------------------------------------------------------------------------------------




--------------------------------------- Iteration      1(  12)  ---------------------------------------


    POTLOK:  cpu time      0.1015: real time      0.1019
    SETDIJ:  cpu time      0.0825: real time      0.0828
    TRIAL :  cpu time      0.3804: real time      0.3822
    CORREC:  cpu time      0.4074: real time      0.4092
    CHARGE:  cpu time      0.0275: real time      0.0276
    --------------------------------------------
      LOOP:  cpu time      1.0004: real time      1.0071

 eigenvalue-minimisations  :     0
 total energy-change (2. order) :-0.1042510E-01  (-0.3200168E-02)
 number of electron     224.0000048 magnetization 
 augmentation part       77.2500726 magnetization 

 DIPCOR: dipole corrections for dipol
 direction  3 min pos     1,
 dipolmoment           0.000000      0.000000      0.000004 electrons x Angstroem
 Tr[quadrupol]     -1503.115294

 energy correction for charged system         0.000000 eV
 dipol+quadrupol energy correction           -0.000000 eV
 added-field ion interaction         -0.000000 eV  (added to PSCEN)


 Free energy of the ion-electron system (eV)
  ---------------------------------------------------
  alpha Z        PSCENC =       437.67757786
  Ewald energy   TEWEN  =     70721.61093633
  -Hartree energ DENC   =    -89285.71629343
  -exchange      EXHF   =         0.00000000
  -V(xc)+E(xc)   XCENC  =       893.32962138
  PAW double counting   =     17325.35898668   -19219.26478965
  entropy T*S    EENTRO =        -0.00000000
  eigenvalues    EBANDS =     -4897.31614176
  atomic energy  EATOM  =     23891.93920109
  ---------------------------------------------------
  free energy    TOTEN  =      -132.38090149 eV

  energy without entropy =     -132.38090149  energy(sigma->0) =     -132.38090149


--------------------------------------------------------------------------------------------------------




--------------------------------------- Iteration      1(  13)  ---------------------------------------


    POTLOK:  cpu time      0.1051: real time      0.1054
    SETDIJ:  cpu time      0.0825: real time      0.0827
    TRIAL :  cpu time      0.3784: real time      0.3800
    CORREC:  cpu time      0.3981: real time      0.3995
    CHARGE:  cpu time      0.0275: real time      0.0276
    --------------------------------------------
      LOOP:  cpu time      0.9933: real time      0.9991

 eigenvalue-minimisations  :     0
 total energy-change (2. order) :-0.3200349E-02  (-0.8508495E-03)
 number of electron     224.0000048 magnetization 
 augmentation part       77.2491168 magnetization 

 DIPCOR: dipole corrections for dipol
 direction  3 min pos     1,
 dipolmoment           0.000000      0.000000     -0.000003 electrons x Angstroem
 Tr[quadrupol]     -1503.116660

 energy correction for charged system         0.000000 eV
 dipol+quadrupol energy correction           -0.000000 eV
 added-field ion interaction          0.000000 eV  (added to PSCEN)


 Free energy of the ion-electron system (eV)
  ---------------------------------------------------
  alpha Z        PSCENC =       437.67757786
  Ewald energy   TEWEN  =     70721.61093633
  -Hartree energ DENC   =    -89286.31204745
  -exchange      EXHF   =         0.00000000
  -V(xc)+E(xc)   XCENC  =       893.32120462
  PAW double counting   =     17326.19634820   -19220.16194552
  entropy T*S    EENTRO =        -0.00000000
  eigenvalues    EBANDS =     -4896.65537697
  atomic energy  EATOM  =     23891.93920109
  ---------------------------------------------------
  free energy    TOTEN  =      -132.38410184 eV

  energy without entropy =     -132.38410184  energy(sigma->0) =     -132.38410184


--------------------------------------------------------------------------------------------------------




--------------------------------------- Iteration      1(  14)  ---------------------------------------


    POTLOK:  cpu time      0.1026: real time      0.1030
    SETDIJ:  cpu time      0.0827: real time      0.0829
    TRIAL :  cpu time      0.3760: real time      0.3778
    CORREC:  cpu time      0.4031: real time      0.4045
    CHARGE:  cpu time      0.0275: real time      0.0276
    --------------------------------------------
      LOOP:  cpu time      0.9926: real time      0.9990

 eigenvalue-minimisations  :     0
 total energy-change (2. order) :-0.8502872E-03  (-0.2247975E-03)
 number of electron     224.0000048 magnetization 
 augmentation part       77.2486672 magnetization 

 DIPCOR: dipole corrections for dipol
 direction  3 min pos     1,
 dipolmoment           0.000000      0.000000     -0.000002 electrons x Angstroem
 Tr[quadrupol]     -1503.105684

 energy correction for charged system         0.000000 eV
 dipol+quadrupol energy correction           -0.000000 eV
 added-field ion interaction          0.000000 eV  (added to PSCEN)


 Free energy of the ion-electron system (eV)
  ---------------------------------------------------
  alpha Z        PSCENC =       437.67757786
  Ewald energy   TEWEN  =     70721.61093633
  -Hartree energ DENC   =    -89286.21378910
  -exchange      EXHF   =         0.00000000
  -V(xc)+E(xc)   XCENC  =       893.34191597
  PAW double counting   =     17329.05813045   -19222.97299155
  entropy T*S    EENTRO =        -0.00000000
  eigenvalues    EBANDS =     -4896.82593318
  atomic energy  EATOM  =     23891.93920109
  ---------------------------------------------------
  free energy    TOTEN  =      -132.38495213 eV

  energy without entropy =     -132.38495213  energy(sigma->0) =     -132.38495213


--------------------------------------------------------------------------------------------------------




--------------------------------------- Iteration      1(  15)  ---------------------------------------


    POTLOK:  cpu time      0.1182: real time      0.1185
    SETDIJ:  cpu time      0.0836: real time      0.0838
    TRIAL :  cpu time      0.3937: real time      0.3953
    CORREC:  cpu time      0.4110: real time      0.4122
    CHARGE:  cpu time      0.0279: real time      0.0280
    --------------------------------------------
      LOOP:  cpu time      1.0353: real time      1.0413

 eigenvalue-minimisations  :     0
 total energy-change (2. order) :-0.2241314E-03  (-0.7026918E-04)
 number of electron     224.0000048 magnetization 
 augmentation part       77.2478234 magnetization 

 DIPCOR: dipole corrections for dipol
 direction  3 min pos     1,
 dipolmoment           0.000000      0.000000      0.000001 electrons x Angstroem
 Tr[quadrupol]     -1503.088783

 energy correction for charged system         0.000000 eV
 dipol+quadrupol energy correction           -0.000000 eV
 added-field ion interaction         -0.000000 eV  (added to PSCEN)


 Free energy of the ion-electron system (eV)
  ---------------------------------------------------
  alpha Z        PSCENC =       437.67757786
  Ewald energy   TEWEN  =     70721.61093633
  -Hartree energ DENC   =    -89285.97734475
  -exchange      EXHF   =         0.00000000
  -V(xc)+E(xc)   XCENC  =       893.35540624
  PAW double counting   =     17330.12881244   -19223.99128257
  entropy T*S    EENTRO =        -0.00000000
  eigenvalues    EBANDS =     -4897.12848291
  atomic energy  EATOM  =     23891.93920109
  ---------------------------------------------------
  free energy    TOTEN  =      -132.38517626 eV

  energy without entropy =     -132.38517626  energy(sigma->0) =     -132.38517626


--------------------------------------------------------------------------------------------------------




--------------------------------------- Iteration      1(  16)  ---------------------------------------


    POTLOK:  cpu time      0.1036: real time      0.1040
    SETDIJ:  cpu time      0.0831: real time      0.0833
    TRIAL :  cpu time      0.3790: real time      0.3805
    CORREC:  cpu time      0.4064: real time      0.4084
    CHARGE:  cpu time      0.0277: real time      0.0278
    --------------------------------------------
      LOOP:  cpu time      1.0009: real time      1.0077

 eigenvalue-minimisations  :     0
 total energy-change (2. order) :-0.7006869E-04  (-0.1714623E-04)
 number of electron     224.0000048 magnetization 
 augmentation part       77.2477630 magnetization 

 DIPCOR: dipole corrections for dipol
 direction  3 min pos     1,
 dipolmoment           0.000000      0.000000      0.000001 electrons x Angstroem
 Tr[quadrupol]     -1503.076666

 energy correction for charged system         0.000000 eV
 dipol+quadrupol energy correction           -0.000000 eV
 added-field ion interaction         -0.000000 eV  (added to PSCEN)


 Free energy of the ion-electron system (eV)
  ---------------------------------------------------
  alpha Z        PSCENC =       437.67757786
  Ewald energy   TEWEN  =     70721.61093633
  -Hartree energ DENC   =    -89285.20308978
  -exchange      EXHF   =         0.00000000
  -V(xc)+E(xc)   XCENC  =       893.34582023
  PAW double counting   =     17329.86220034   -19223.70483307
  entropy T*S    EENTRO =        -0.00000000
  eigenvalues    EBANDS =     -4897.91305934
  atomic energy  EATOM  =     23891.93920109
  ---------------------------------------------------
  free energy    TOTEN  =      -132.38524633 eV

  energy without entropy =     -132.38524633  energy(sigma->0) =     -132.38524633


--------------------------------------------------------------------------------------------------------




--------------------------------------- Iteration      1(  17)  ---------------------------------------


    POTLOK:  cpu time      0.1034: real time      0.1038
    SETDIJ:  cpu time      0.0828: real time      0.0830
    TRIAL :  cpu time      0.3773: real time      0.3791
    CORREC:  cpu time      0.4010: real time      0.4022
    CHARGE:  cpu time      0.0277: real time      0.0278
    --------------------------------------------
      LOOP:  cpu time      0.9939: real time      0.9992

 eigenvalue-minimisations  :     0
 total energy-change (2. order) :-0.1724522E-04  (-0.3531892E-05)
 number of electron     224.0000048 magnetization 
 augmentation part       77.2480547 magnetization 

 DIPCOR: dipole corrections for dipol
 direction  3 min pos     1,
 dipolmoment           0.000000      0.000000      0.000000 electrons x Angstroem
 Tr[quadrupol]     -1503.075537

 energy correction for charged system         0.000000 eV
 dipol+quadrupol energy correction           -0.000000 eV
 added-field ion interaction         -0.000000 eV  (added to PSCEN)


 Free energy of the ion-electron system (eV)
  ---------------------------------------------------
  alpha Z        PSCENC =       437.67757786
  Ewald energy   TEWEN  =     70721.61093633
  -Hartree energ DENC   =    -89284.89021924
  -exchange      EXHF   =         0.00000000
  -V(xc)+E(xc)   XCENC  =       893.34030746
  PAW double counting   =     17329.64647783   -19223.49053697
  entropy T*S    EENTRO =        -0.00000000
  eigenvalues    EBANDS =     -4898.21900793
  atomic energy  EATOM  =     23891.93920109
  ---------------------------------------------------
  free energy    TOTEN  =      -132.38526357 eV

  energy without entropy =     -132.38526357  energy(sigma->0) =     -132.38526357


--------------------------------------------------------------------------------------------------------




--------------------------------------- Iteration      1(  18)  ---------------------------------------


    POTLOK:  cpu time      0.1037: real time      0.1041
    SETDIJ:  cpu time      0.0821: real time      0.0823
    TRIAL :  cpu time      0.3763: real time      0.3779
    CORREC:  cpu time      0.4020: real time      0.4033
    CHARGE:  cpu time      0.0274: real time      0.0275
    --------------------------------------------
      LOOP:  cpu time      0.9924: real time      0.9989

 eigenvalue-minimisations  :     0
 total energy-change (2. order) :-0.3579054E-05  (-0.7013660E-06)
 number of electron     224.0000048 magnetization 
 augmentation part       77.2481293 magnetization 

 DIPCOR: dipole corrections for dipol
 direction  3 min pos     1,
 dipolmoment           0.000000      0.000000     -0.000000 electrons x Angstroem
 Tr[quadrupol]     -1503.076881

 energy correction for charged system         0.000000 eV
 dipol+quadrupol energy correction           -0.000000 eV
 added-field ion interaction          0.000000 eV  (added to PSCEN)


 Free energy of the ion-electron system (eV)
  ---------------------------------------------------
  alpha Z        PSCENC =       437.67757786
  Ewald energy   TEWEN  =     70721.61093633
  -Hartree energ DENC   =    -89284.96624546
  -exchange      EXHF   =         0.00000000
  -V(xc)+E(xc)   XCENC  =       893.34201504
  PAW double counting   =     17329.62433043   -19223.47284277
  entropy T*S    EENTRO =        -0.00000000
  eigenvalues    EBANDS =     -4898.14023968
  atomic energy  EATOM  =     23891.93920109
  ---------------------------------------------------
  free energy    TOTEN  =      -132.38526715 eV

  energy without entropy =     -132.38526715  energy(sigma->0) =     -132.38526715


--------------------------------------------------------------------------------------------------------




--------------------------------------- Iteration      1(  19)  ---------------------------------------


    POTLOK:  cpu time      0.1042: real time      0.1046
    SETDIJ:  cpu time      0.0816: real time      0.0818
    TRIAL :  cpu time      0.3766: real time      0.3783
    CORREC:  cpu time      0.4012: real time      0.4024
    CHARGE:  cpu time      0.0277: real time      0.0278
    --------------------------------------------
      LOOP:  cpu time      0.9931: real time      0.9984

 eigenvalue-minimisations  :     0
 total energy-change (2. order) :-0.7025010E-06  (-0.2002549E-06)
 number of electron     224.0000048 magnetization 
 augmentation part       77.2480780 magnetization 

 DIPCOR: dipole corrections for dipol
 direction  3 min pos     1,
 dipolmoment           0.000000      0.000000     -0.000000 electrons x Angstroem
 Tr[quadrupol]     -1503.077579

 energy correction for charged system         0.000000 eV
 dipol+quadrupol energy correction           -0.000000 eV
 added-field ion interaction          0.000000 eV  (added to PSCEN)


 Free energy of the ion-electron system (eV)
  ---------------------------------------------------
  alpha Z        PSCENC =       437.67757786
  Ewald energy   TEWEN  =     70721.61093633
  -Hartree energ DENC   =    -89285.02859413
  -exchange      EXHF   =         0.00000000
  -V(xc)+E(xc)   XCENC  =       893.34277761
  PAW double counting   =     17329.59706461   -19223.44755919
  entropy T*S    EENTRO =        -0.00000000
  eigenvalues    EBANDS =     -4898.07667205
  atomic energy  EATOM  =     23891.93920109
  ---------------------------------------------------
  free energy    TOTEN  =      -132.38526786 eV

  energy without entropy =     -132.38526786  energy(sigma->0) =     -132.38526786


--------------------------------------------------------------------------------------------------------




--------------------------------------- Iteration      1(  20)  ---------------------------------------


    POTLOK:  cpu time      0.1054: real time      0.1057
    SETDIJ:  cpu time      0.0826: real time      0.0828
    TRIAL :  cpu time      0.3788: real time      0.3803
    CORREC:  cpu time      0.4068: real time      0.4091
    CHARGE:  cpu time      0.0276: real time      0.0276
    --------------------------------------------
      LOOP:  cpu time      1.0024: real time      1.0094

 eigenvalue-minimisations  :     0
 total energy-change (2. order) :-0.1687076E-06  (-0.5690017E-07)
 number of electron     224.0000048 magnetization 
 augmentation part       77.2480861 magnetization 

 DIPCOR: dipole corrections for dipol
 direction  3 min pos     1,
 dipolmoment           0.000000      0.000000      0.000000 electrons x Angstroem
 Tr[quadrupol]     -1503.078094

 energy correction for charged system         0.000000 eV
 dipol+quadrupol energy correction           -0.000000 eV
 added-field ion interaction         -0.000000 eV  (added to PSCEN)


 Free energy of the ion-electron system (eV)
  ---------------------------------------------------
  alpha Z        PSCENC =       437.67757786
  Ewald energy   TEWEN  =     70721.61093633
  -Hartree energ DENC   =    -89285.04447197
  -exchange      EXHF   =         0.00000000
  -V(xc)+E(xc)   XCENC  =       893.34230565
  PAW double counting   =     17329.56296281   -19223.41422129
  entropy T*S    EENTRO =        -0.00000000
  eigenvalues    EBANDS =     -4898.05955851
  atomic energy  EATOM  =     23891.93920109
  ---------------------------------------------------
  free energy    TOTEN  =      -132.38526802 eV

  energy without entropy =     -132.38526802  energy(sigma->0) =     -132.38526802


--------------------------------------------------------------------------------------------------------




--------------------------------------- Iteration      1(  21)  ---------------------------------------


    POTLOK:  cpu time      0.1045: real time      0.1049
    SETDIJ:  cpu time      0.0824: real time      0.0826
    TRIAL :  cpu time      0.3777: real time      0.3792
    CORREC:  cpu time      0.4032: real time      0.4045
    EDDIAG:  cpu time      0.1160: real time      0.1164
    CHARGE:  cpu time      0.0274: real time      0.0275
    --------------------------------------------
      LOOP:  cpu time      1.1126: real time      1.1190

 eigenvalue-minimisations  :     0
 total energy-change (2. order) :-0.4333560E-07  (-0.1956785E-07)
 number of electron     224.0000048 magnetization 
 augmentation part       77.2480977 magnetization 

 DIPCOR: dipole corrections for dipol
 direction  3 min pos     1,
 dipolmoment           0.000000      0.000000     -0.000000 electrons x Angstroem
 Tr[quadrupol]     -1503.078249

 energy correction for charged system         0.000000 eV
 dipol+quadrupol energy correction           -0.000000 eV
 added-field ion interaction          0.000000 eV  (added to PSCEN)


 Free energy of the ion-electron system (eV)
  ---------------------------------------------------
  alpha Z        PSCENC =       437.67757786
  Ewald energy   TEWEN  =     70721.61093633
  -Hartree energ DENC   =    -89285.06370607
  -exchange      EXHF   =         0.00000000
  -V(xc)+E(xc)   XCENC  =       893.34255086
  PAW double counting   =     17329.56628923   -19223.41798697
  entropy T*S    EENTRO =        -0.00000000
  eigenvalues    EBANDS =     -4898.04013039
  atomic energy  EATOM  =     23891.93920109
  ---------------------------------------------------
  free energy    TOTEN  =      -132.38526807 eV

  energy without entropy =     -132.38526807  energy(sigma->0) =     -132.38526807


--------------------------------------------------------------------------------------------------------


  average scaling for gradient   1.1971


 average (electrostatic) potential at core
  the test charge radii are     0.8294  0.7215
  (the norm of the test charge is              1.0000)
       1 -46.5043       2 -46.5043       3 -46.5043       4 -46.5043       5 -45.9188
       6 -45.9188       7 -45.9188       8 -45.9188       9 -45.9188      10 -45.9188
      11 -45.9188      12 -45.9188      13 -46.5043      14 -46.5043      15 -46.5043
      16 -46.5043      17 -74.6995      18 -74.6995      19 -74.6995      20 -74.6995
      21 -74.6403      22 -74.6403      23 -74.6403      24 -74.6403      25 -74.6403
      26 -74.6403      27 -74.6403      28 -74.6403      29 -74.6995      30 -74.6995
      31 -74.6995      32 -74.6995
 
 
 
 E-fermi :  -1.7270     XC(G=0):  -5.6515     alpha+bet : -5.0289

 Fermi energy:        -1.7269998030

 k-point     1 :       0.0000    0.0000    0.0000
  band No.  band energies     occupation 
      1     -41.7169      2.00000
      2     -41.7168      2.00000
      3     -41.7132      2.00000
      4     -41.7132      2.00000
      5     -41.7131      2.00000
      6     -41.7131      2.00000
      7     -41.7094      2.00000
      8     -41.7094      2.00000
      9     -41.6311      2.00000
     10     -41.6311      2.00000
     11     -41.6311      2.00000
     12     -41.6311      2.00000
     13     -41.6223      2.00000
     14     -41.6223      2.00000
     15     -41.6222      2.00000
     16     -41.6222      2.00000
     17     -41.5878      2.00000
     18     -41.5878      2.00000
     19     -41.5877      2.00000
     20     -41.5877      2.00000
     21     -41.5824      2.00000
     22     -41.5824      2.00000
     23     -41.5824      2.00000
     24     -41.5824      2.00000
     25     -41.0963      2.00000
     26     -41.0963      2.00000
     27     -41.0963      2.00000
     28     -41.0963      2.00000
     29     -41.0897      2.00000
     30     -41.0897      2.00000
     31     -41.0805      2.00000
     32     -41.0679      2.00000
     33     -41.0679      2.00000
     34     -41.0552      2.00000
     35     -41.0552      2.00000
     36     -41.0500      2.00000
     37     -41.0500      2.00000
     38     -41.0498      2.00000
     39     -41.0498      2.00000
     40     -41.0498      2.00000
     41     -41.0498      2.00000
     42     -41.0444      2.00000
     43     -41.0374      2.00000
     44     -41.0374      2.00000
     45     -41.0374      2.00000
     46     -41.0374      2.00000
     47     -41.0358      2.00000
     48     -41.0358      2.00000
     49     -18.9032      2.00000
     50     -18.3940      2.00000
     51     -17.8476      2.00000
     52     -17.8248      2.00000
     53     -17.8248      2.00000
     54     -17.8248      2.00000
     55     -17.8248      2.00000
     56     -17.5858      2.00000
     57     -17.5319      2.00000
     58     -17.5319      2.00000
     59     -17.4994      2.00000
[...]
    115       3.2627      0.00000
    116       3.2627      0.00000
    117       3.5822      0.00000
    118       3.6235      0.00000
    119       3.6235      0.00000
    120       4.3613      0.00000
    121       4.4844      0.00000
    122       4.7224      0.00000
    123       4.9553      0.00000
    124       4.9553      0.00000
    125       5.0156      0.00000
    126       5.8079      0.00000
    127       5.8079      0.00000
    128       5.9351      0.00000
    129       6.2821      0.00000
    130       6.3364      0.00000
    131       6.3364      0.00000
    132       6.4660      0.00000
    133       6.8871      0.00000
    134       6.8871      0.00000
    135       7.0294      0.00000
    136       7.0294      0.00000
    137       7.0381      0.00000
    138       7.5173      0.00000
    139       7.7338      0.00000
    140       7.9727      0.00000
    141       7.9727      0.00000
    142       8.0053      0.00000
    143       8.1498      0.00000
    144       8.1498      0.00000
    145       8.1752      0.00000
    146       8.3018      0.00000
    147       8.3298      0.00000
    148       8.4013      0.00000
    149       8.7452      0.00000
    150       8.8256      0.00000
    151       8.8715      0.00000
    152       8.8715      0.00000
    153       8.9822      0.00000
    154       9.0876      0.00000
    155       9.0876      0.00000
    156       9.3652      0.00000
    157       9.4908      0.00000
    158       9.4908      0.00000
    159       9.5805      0.00000
    160       9.6882      0.00000
    161       9.7769      0.00000
    162       9.7907      0.00000
    163       9.8383      0.00000
    164       9.8431      0.00000
    165       9.8431      0.00000
    166       9.9096      0.00000
    167       9.9096      0.00000
    168      10.0318      0.00000
    169      10.1515      0.00000
    170      10.2955      0.00000
    171      10.5002      0.00000
    172      10.5002      0.00000
    173      10.5614      0.00000
    174      10.5614      0.00000
    175      10.6837      0.00000
    176      10.6837      0.00000
    177      10.8564      0.00000
    178      11.1146      0.00000
    179      11.2743      0.00000
    180      11.2776      0.00000
    181      11.2776      0.00000
    182      11.3629      0.00000
    183      11.5595      0.00000
    184      11.6068      0.00000
    185      11.8045      0.00000
    186      11.8611      0.00000
    187      11.9434      0.00000
    188      12.1363      0.00000
    189      12.1363      0.00000
    190      12.1817      0.00000
    191      12.1970      0.00000
    192      12.1970      0.00000
    193      12.2862      0.00000
    194      12.2862      0.00000
    195      12.5026      0.00000
    196      12.5625      0.00000
    197      12.9357      0.00000
    198      13.0493      0.00000
    199      13.0493      0.00000
    200      13.2029      0.00000
    201      13.2029      0.00000
    202      13.2061      0.00000
    203      13.2948      0.00000
    204      13.2948      0.00000
    205      13.3222      0.00000
    206      13.5020      0.00000
    207      13.5357      0.00000
    208      13.9564      0.00000
    209      14.0478      0.00000
    210      14.0530      0.00000
    211      14.0530      0.00000
    212      14.0904      0.00000
    213      14.0904      0.00000
    214      14.3562      0.00000
    215      14.3666      0.00000
    216      14.4612      0.00000
    217      14.4996      0.00000
    218      14.5860      0.00000
    219      14.8150      0.00000
    220      14.8150      0.00000
    221      14.8529      0.00000
    222      14.8794      0.00000
    223      14.8794      0.00000
    224      14.9684      0.00000
    225      15.0969      0.00000
    226      15.0969      0.00000
    227      15.1975      0.00000
    228      15.2327      0.00000
    229      15.4171      0.00000
    230      15.5421      0.00000
    231      15.5845      0.00000
    232      15.6232      0.00000
    233      15.6650      0.00000
    234      15.7375      0.00000
    235      15.7375      0.00000
    236      15.9295      0.00000
    237      15.9295      0.00000
    238      16.0290      0.00000
    239      16.0948      0.00000
    240      16.4205      0.00000
    241      16.5350      0.00000
    242      16.5896      0.00000
    243      16.5951      0.00000
    244      16.5951      0.00000
    245      16.6410      0.00000
    246      16.6703      0.00000
    247      16.6703      0.00000
    248      16.7101      0.00000
    249      16.8044      0.00000
    250      16.8407      0.00000
    251      16.9063      0.00000
    252      16.9063      0.00000
    253      17.0913      0.00000
    254      17.2972      0.00000
    255      17.2972      0.00000
    256      17.7312      0.00000
    257      17.8526      0.00000
    258      17.8931      0.00000
    259      18.0112      0.00000
    260      18.0112      0.00000
    261      18.3231      0.00000
    262      18.3702      0.00000
    263      18.4122      0.00000
    264      18.4122      0.00000
    265      18.5301      0.00000
    266      18.6844      0.00000
    267      18.6844      0.00000
    268      18.7240      0.00000
    269      18.8008      0.00000
    270      18.8651      0.00000
    271      18.8651      0.00000
    272      18.9147      0.00000
    273      18.9147      0.00000
    274      18.9472      0.00000
    275      18.9472      0.00000
    276      18.9818      0.00000
    277      19.0898      0.00000
    278      19.2952      0.00000
    279      19.4079      0.00000
    280      19.4580      0.00000
    281      19.7770      0.00000
    282      19.8630      0.00000
    283      19.8630      0.00000
    284      20.0122      0.00000
    285      20.0122      0.00000
    286      20.1770      0.00000
    287      20.2100      0.00000
    288      20.2100      0.00000
    289      20.2857      0.00000
    290      20.5185      0.00000
    291      20.8197      0.00000
    292      20.8605      0.00000
    293      20.8605      0.00000
    294      20.8652      0.00000
    295      21.0254      0.00000
    296      21.0255      0.00000
    297      21.4334      0.00000
    298      21.4336      0.00000
    299      21.7765      0.00000
    300      21.8190      0.00000
    301      21.8287      0.00000
    302      21.9573      0.00000
    303      22.1935      0.00000
    304      22.5770      0.00000


--------------------------------------------------------------------------------------------------------


 soft charge-density along one line, spin component           1
         0         1         2         3         4         5         6         7         8         9
 total charge-density along one line
 
 pseudopotential strength for first ion, spin component:           1
-51.988  -0.000  -0.000   7.265   0.000   0.000  -0.000   0.000
 -0.000 -52.044   0.000   0.000   7.290  -0.000  -0.031   0.079
 -0.000   0.000 -51.988   0.000  -0.000   7.265   0.000  -0.000
  7.265   0.000   0.000   4.190  -0.000  -0.000   0.000   0.000
  0.000   7.290  -0.000  -0.000   4.194  -0.000  -0.003   0.006
  0.000  -0.000   7.265  -0.000  -0.000   4.190   0.000  -0.000
 -0.000  -0.031   0.000   0.000  -0.003   0.000   2.993 -11.053
  0.000   0.079  -0.000   0.000   0.006  -0.000 -11.053  46.103
 -0.000   0.000   0.000   0.000  -0.000  -0.000  -0.000   0.000
  0.009   0.000   0.000  -0.007  -0.000  -0.000   0.000  -0.000
 -0.000   0.010   0.000   0.000  -0.015  -0.000   0.008  -0.016
  0.000  -0.000   0.009  -0.000   0.000  -0.007  -0.000   0.000
 -0.000   0.000  -0.000   0.000   0.000   0.000  -0.000   0.000
 total augmentation occupancy for first ion, spin component:           1
  2.002   0.000   0.000  -0.004  -0.000   0.000   0.000   0.000   0.000  -0.008   0.000   0.000   0.000
  0.000   2.002  -0.000   0.000   0.002  -0.000   0.001   0.004   0.000   0.000  -0.014  -0.000   0.000
  0.000   0.000   2.002   0.000   0.000  -0.004   0.000   0.000  -0.000   0.000   0.000  -0.008  -0.000
 -0.004   0.000   0.000   0.078  -0.000   0.000  -0.000   0.000   0.000   0.001   0.000  -0.000   0.000
  0.000   0.002   0.000  -0.000   0.048   0.000   0.039   0.001  -0.000   0.000   0.026  -0.000  -0.000
  0.000   0.000  -0.004   0.000   0.000   0.078   0.000   0.000  -0.000  -0.000   0.000   0.001   0.000
  0.000   0.001  -0.000   0.000   0.039   0.000   0.833   0.013   0.000   0.000  -0.039   0.000   0.000
  0.000   0.004   0.000  -0.000   0.001  -0.000   0.013   0.000  -0.000  -0.000  -0.001   0.000   0.000
 -0.000   0.000  -0.000  -0.000  -0.000  -0.000   0.000  -0.000   0.053   0.000  -0.000  -0.000   0.000
 -0.008  -0.000   0.000   0.001  -0.000  -0.000   0.000   0.000   0.000   0.011   0.000   0.000   0.000
 -0.000  -0.014  -0.000   0.000   0.026   0.000  -0.039  -0.001  -0.000   0.000   0.032   0.000  -0.000
  0.000  -0.000  -0.008  -0.000   0.000   0.001  -0.000  -0.000   0.000   0.000  -0.000   0.011   0.000
 -0.000   0.000  -0.000  -0.000  -0.000  -0.000   0.000   0.000  -0.000  -0.000  -0.000   0.000   0.013


------------------------ aborting loop because EDIFF is reached ----------------------------------------


    FORLOC:  cpu time      0.0003: real time      0.0003
    FORNL :  cpu time      0.0948: real time      0.0953
    STRESS:  cpu time      0.6607: real time      0.6637
    FORCOR:  cpu time      0.1049: real time      0.1053
    OFIELD:  cpu time      0.0000: real time      0.0000

  FORCE on cell =-STRESS in cart. coord.  units (eV):
  Direction    XX          YY          ZZ          XY          YZ          ZX
  --------------------------------------------------------------------------------------
  Alpha Z   437.67758   437.67758   437.67758
  Ewald   80754.42242 80754.42242-91075.33452    -0.00000    -0.00000     0.00000
  Hartree 85769.64212 85769.64212-82561.39084    -0.00000    -0.00000    -0.00000
  E(xc)   -1227.98180 -1227.98180 -1228.03229     0.00000     0.00000    -0.00000
  Local  ************************171658.69106     0.00000    -0.00000    -0.00000
  n-local -1415.32835 -1416.64123 -1425.55910     0.12072    -0.00000    -0.00000
  augment   525.74755   525.74755   521.10463     0.00000     0.00000     0.00000
  Kinetic  3641.86564  3662.55253  3671.55456    -0.37984     0.00000     0.00000
  Fock        0.00000     0.00000     0.00000     0.00000     0.00000     0.00000
  -------------------------------------------------------------------------------------
  Total     -15.06799   -15.06799    -1.28893     0.00000     0.00000     0.00000
  in kB     -31.77249   -31.77249    -2.71785     0.00000     0.00000     0.00000
  external pressure =      -22.09 kB  Pullay stress =        0.00 kB


 VOLUME and BASIS-vectors are now :
 -----------------------------------------------------------------------------
  energy-cutoff  :      600.00
  volume of cell :      759.83
      direct lattice vectors                 reciprocal lattice vectors
     5.968392849  0.000000000  0.000000000     0.167549293  0.000000000  0.000000000
     0.000000000  5.968392849  0.000000000     0.000000000  0.167549293  0.000000000
     0.000000000  0.000000000 21.330436706     0.000000000  0.000000000  0.046881366

  length of vectors
     5.968392849  5.968392849 21.330436706     0.167549293  0.167549293  0.046881366


 FORCES acting on ions:
    Electron-Ion                     Ewald-Force                    Non-Local-Force
 -----------------------------------------------------------------------------------------------
   0.182E-12 0.571E-13 0.207E+04   -.582E-13 -.426E-13 -.206E+04   -.350E-24 -.254E-24 -.679E+01
   0.841E-12 0.228E-11 0.207E+04   -.582E-13 -.426E-13 -.206E+04   0.643E-25 0.310E-24 -.679E+01
   0.836E-12 0.838E-12 0.207E+04   -.582E-13 -.284E-13 -.206E+04   -.558E-25 -.152E-24 -.679E+01
   0.184E-12 0.991E-12 0.207E+04   -.582E-13 -.284E-13 -.206E+04   -.278E-24 0.249E-24 -.679E+01
   -.586E-13 0.457E-12 0.685E+03   -.107E-12 -.542E-13 -.685E+03   -.203E-23 0.177E-24 0.441E+00
   0.556E-12 -.248E-12 0.685E+03   -.107E-12 -.542E-13 -.685E+03   0.806E-24 -.477E-24 0.441E+00
   -.590E-13 -.229E-12 0.685E+03   -.107E-12 -.400E-13 -.685E+03   -.221E-23 -.680E-24 0.441E+00
   0.558E-12 0.324E-12 0.685E+03   -.107E-12 -.400E-13 -.685E+03   -.311E-23 -.209E-24 0.441E+00
   0.252E-12 0.152E-12 -.690E+03   0.568E-13 0.142E-13 0.690E+03   -.181E-22 -.383E-23 -.241E+00
   0.785E-12 0.762E-12 -.690E+03   0.568E-13 0.142E-13 0.690E+03   0.111E-22 0.159E-24 -.241E+00
   0.788E-12 -.838E-12 -.690E+03   0.568E-13 0.284E-13 0.690E+03   0.347E-23 0.563E-24 -.241E+00
   0.256E-12 0.971E-12 -.690E+03   0.568E-13 0.284E-13 0.690E+03   -.867E-23 -.495E-24 -.241E+00
   -.296E-13 0.281E-12 -.206E+04   0.158E-13 0.297E-13 0.205E+04   -.487E-23 -.959E-25 0.596E+01
   0.595E-12 0.952E-13 -.206E+04   0.158E-13 0.155E-13 0.205E+04   0.279E-23 0.126E-23 0.596E+01
   -.321E-13 0.105E-12 -.206E+04   0.158E-13 0.297E-13 0.205E+04   0.314E-24 -.256E-23 0.596E+01
   0.596E-12 -.510E-12 -.206E+04   0.158E-13 0.297E-13 0.205E+04   -.567E-23 -.781E-24 0.596E+01
   0.812E-13 0.162E-12 0.513E+03   0.675E-13 0.391E-13 -.513E+03   0.294E-24 0.139E-23 -.811E-01
   0.330E-12 0.128E-11 0.513E+03   0.675E-13 0.355E-13 -.513E+03   0.714E-24 0.384E-24 -.811E-01
   0.329E-12 0.164E-11 0.513E+03   0.639E-13 0.391E-13 -.513E+03   0.365E-24 -.533E-24 -.811E-01
   0.893E-13 0.629E-12 0.513E+03   0.639E-13 0.391E-13 -.513E+03   -.233E-24 -.352E-24 -.811E-01
   -.114E-13 0.667E-12 0.155E+04   0.791E-13 0.386E-13 -.156E+04   0.727E-25 -.291E-25 0.360E+01
   0.218E-12 0.383E-12 0.155E+04   0.802E-13 0.377E-13 -.156E+04   0.830E-25 -.263E-25 0.360E+01
   -.199E-13 0.431E-12 0.155E+04   0.768E-13 0.413E-13 -.156E+04   -.682E-26 -.225E-24 0.360E+01
   0.224E-12 0.740E-12 0.155E+04   0.779E-13 0.404E-13 -.156E+04   -.787E-24 0.242E-25 0.360E+01
   0.755E-13 0.276E-12 -.156E+04   -.639E-13 -.497E-13 0.157E+04   0.401E-25 -.336E-24 -.493E+01
   0.283E-12 0.498E-12 -.156E+04   -.639E-13 -.497E-13 0.157E+04   -.982E-24 0.164E-23 -.493E+01
   0.291E-12 -.902E-12 -.156E+04   -.639E-13 -.462E-13 0.157E+04   0.781E-24 -.909E-24 -.493E+01
   0.775E-13 0.902E-12 -.156E+04   -.639E-13 -.497E-13 0.157E+04   0.554E-24 0.626E-24 -.493E+01
   -.334E-13 0.381E-13 -.512E+03   0.255E-13 0.651E-14 0.512E+03   -.185E-23 0.450E-24 0.280E+00
   0.195E-12 0.171E-12 -.512E+03   0.266E-13 0.563E-14 0.512E+03   0.357E-24 0.300E-24 0.280E+00
   -.217E-13 0.143E-12 -.512E+03   0.233E-13 0.919E-14 0.512E+03   -.105E-24 -.280E-24 0.280E+00
   0.200E-12 0.190E-11 -.512E+03   0.243E-13 0.832E-14 0.512E+03   0.174E-23 -.412E-25 0.280E+00
 -----------------------------------------------------------------------------------------------
   0.873E-11 0.146E-10 0.708E+01   0.505E-13 0.403E-14 -.421E-11   -.257E-22 -.473E-23 -.707E+01
 
 
 POSITION                                       TOTAL-FORCE (eV/Angst)
 -----------------------------------------------------------------------------------
      1.49210      1.49210      7.50000        -0.000000     -0.000000      0.318725
      4.47629      4.47629      7.50000         0.000000      0.000000      0.318725
      4.47629      1.49210      7.50000         0.000000      0.000000      0.318725
      1.49210      4.47629      7.50000         0.000000      0.000000      0.318725
      0.00000      2.98420      9.61015         0.000000     -0.000000      0.027535
      2.98420      0.00000      9.61015        -0.000000      0.000000      0.027535
      0.00000      0.00000      9.61015         0.000000      0.000000      0.027535
      2.98420      2.98420      9.61015        -0.000000     -0.000000      0.027535
      1.49210      1.49210     11.73145        -0.000000      0.000000      0.005128
      4.47629      4.47629     11.73145         0.000000      0.000000      0.005128
      4.47629      1.49210     11.73145         0.000000     -0.000000      0.005128
      1.49210      4.47629     11.73145        -0.000000     -0.000000      0.005128
      0.00000      2.98420     13.83060         0.000000     -0.000000     -0.002776
      2.98420     -0.00000     13.83060        -0.000000     -0.000000     -0.002776
      0.00000     -0.00000     13.83060        -0.000000     -0.000000     -0.002776
      2.98420      2.98420     13.83060         0.000000     -0.000000     -0.002776
      1.49210      1.49210      9.61015        -0.000000      0.000000      0.054540
      4.47629      4.47629      9.61015         0.000000      0.000000      0.054540
      4.47629      1.49210      9.61015         0.000000     -0.000000      0.054540
      1.49210      4.47629      9.61015        -0.000000     -0.000000      0.054540
      0.00000      2.98420      7.50000        -0.000000     -0.000000     -0.402802
      2.98420      0.00000      7.50000         0.000000      0.000000     -0.402802
      0.00000      0.00000      7.50000         0.000000      0.000000     -0.402802
      2.98420      2.98420      7.50000        -0.000000     -0.000000     -0.402802
      1.49210      1.49210     13.86975        -0.000000     -0.000000     -0.006546
      4.47629      4.47629     13.86975        -0.000000      0.000000     -0.006546
      4.47629      1.49210     13.86975        -0.000000     -0.000000     -0.006546
      1.49210      4.47629     13.86975        -0.000000      0.000000     -0.006546
     -0.00000      2.98420     11.72526         0.000000     -0.000000      0.006198
      2.98420     -0.00000     11.72526        -0.000000     -0.000000      0.006198
     -0.00000      0.00000     11.72526        -0.000000      0.000000      0.006198
      2.98420      2.98420     11.72526        -0.000000     -0.000000      0.006198
 -----------------------------------------------------------------------------------
    total drift:                                0.000000      0.000000      0.009597


--------------------------------------------------------------------------------------------------------



  FREE ENERGIE OF THE ION-ELECTRON SYSTEM (eV)
  ---------------------------------------------------
  free  energy   TOTEN  =      -132.41591186 eV

  energy  without entropy=     -132.41591186  energy(sigma->0) =     -132.41591186
 
 d Force = 0.5438953E-04[ 0.263E-04, 0.825E-04]  d Energy = 0.6128746E-04-0.690E-05
 d Force = 0.1542531E+02[ 0.154E+02, 0.154E+02]  d Ewald  = 0.1542531E+02 0.790E-07


--------------------------------------------------------------------------------------------------------


    POTLOK:  cpu time      0.1935: real time      0.1941


--------------------------------------------------------------------------------------------------------




--------------------------------------------------------------------------------------------------------


  
 reached required accuracy - stopping structural energy minimisation
     LOOP+:  cpu time     11.2979: real time     11.3691
    4ORBIT:  cpu time      0.0000: real time      0.0000

 total amount of memory used by VASP MPI-rank0    72001. kBytes
=======================================================================

   base      :      30000. kBytes
   nonl-proj :      29008. kBytes
   fftplans  :       1278. kBytes
   grid      :       7694. kBytes
   one-center:        259. kBytes
   wavefun   :       3762. kBytes
 
  
  
 General timing and accounting informations for this job:
 ========================================================
  
                  Total CPU time used (sec):      161.557
                            User time (sec):      160.587
                          System time (sec):        0.971
                         Elapsed time (sec):      164.200
  
                   Maximum memory used (kb):      563156.
                   Average memory used (kb):          N/A
  
                          Minor page faults:       224697
                          Major page faults:          258
                 Voluntary context switches:         4232
