 vasp.6.3.0 20Jan22 (build Apr  1 2022 16:44:48) complex                         
 executed on        HPECrayEX_GCC date 2022.09.30  22:12:13
 running  512 mpi-ranks, with    1 threads/rank
 distrk:  each k-point on  256 cores,    2 groups
 distr:  one band on NCORE=   4 cores,   64 groups


--------------------------------------------------------------------------------------------------------


 INCAR:
   SYSTEM = MgO-rocksalt
   ISMEAR = 0
   SIGMA = 0.05
   EDIFF = 1E-5
   ALGO = ALL
   ISTART = 0
   IBRION = -1
   NSW = 0
   ISYM = 2
   ISIF = 2
   DIPOL = 0.5 0.5 0.5
   IDIPOL = 3
   LDIPOL = .TRUE.
   GGA = RE
   IVDW = 13
   VDW_S8 = 1.7468
   VDW_A1 = 0.5363
   VDW_A2 = 3.0726
   ENCUT = 600
   PREC = Normal
   LASPH = .TRUE.
   LREAL = .FALSE.
   ISPIN = 1
   NELM = 200
   NELMIN = 8
   NCORE = 4
   KPAR = 2
   LWAVE = .FALSE.
   LCHARG = .FALSE.

 POTCAR:    PAW_PBE C 08Apr2002                   
 POTCAR:    PAW_PBE O 08Apr2002                   
 POTCAR:    PAW_PBE Mg_pv 13Apr2007               
 POTCAR:    PAW_PBE O 08Apr2002                   
 POTCAR:    PAW_PBE C 08Apr2002                   
   SHA256 =  253f7b50bb8d59471dbedb8285d89021f4a42ed1a2c5d38a03a736e69125dd95 C/POTCAR              
   COPYR  = (c) Copyright 08Apr2002 Georg Kresse                                                    
   COPYR  = This file is part of the software VASP. Any use, copying, and all other rights are regul
   COPYR  = If you do not have a valid VASP license, you may not use, copy or distribute this file. 
   VRHFIN =C: s2p2                                                                                  
   LEXCH  = PE                                                                                      
   EATOM  =   147.1560 eV,   10.8157 Ry                                                             
                                                                                                    
   TITEL  = PAW_PBE C 08Apr2002                                                                     
   LULTRA =        F    use ultrasoft PP ?                                                          
   IUNSCR =        1    unscreen: 0-lin 1-nonlin 2-no                                               
   RPACOR =    1.200    partial core radius                                                         
   POMASS =   12.011; ZVAL   =    4.000    mass and valenz                                          
   RCORE  =    1.500    outmost cutoff radius                                                       
   RWIGS  =    1.630; RWIGS  =    0.863    wigner-seitz radius (au A)                               
   ENMAX  =  400.000; ENMIN  =  300.000 eV                                                          
   ICORE  =        2    local potential                                                             
   LCOR   =        T    correct aug charges                                                         
   LPAW   =        T    paw PP                                                                      
   EAUG   =  644.873                                                                                
   DEXC   =    0.000                                                                                
   RMAX   =    1.529    core radius for proj-oper                                                   
   RAUG   =    1.300    factor for augmentation sphere                                              
   RDEP   =    1.501    radius for radial grids                                                     
   RDEPT  =    1.300    core radius for aug-charge                                                  
                                                                                                    
   Atomic configuration                                                                             
    4 entries                                                                                       
     n  l   j            E        occ.                                                              
     1  0  0.50      -273.3789   2.0000                                                             
     2  0  0.50       -13.7508   2.0000                                                             
     2  1  0.50        -5.2854   2.0000                                                             
     3  2  1.50        -5.4423   0.0000                                                             
   Description                                                                                      
     l       E           TYP  RCUT    TYP  RCUT                                                     
     0    -13.7508458     23  1.200                                                                 
     0     -8.2022199     23  1.200                                                                 
     1     -5.2854383     23  1.500                                                                 
     1     34.0145650     23  1.500                                                                 
     2     -5.4423304      7  1.500                                                                 
  local pseudopotential read in
  partial core-charges read in
  partial kinetic energy density read in
  atomic valenz-charges read in
  non local Contribution for L=           0  read in
    real space projection operators read in
  non local Contribution for L=           0  read in
    real space projection operators read in
  non local Contribution for L=           1  read in
    real space projection operators read in
  non local Contribution for L=           1  read in
    real space projection operators read in
    PAW grid and wavefunctions read in

   number of l-projection  operators is LMAX  =           4
   number of lm-projection operators is LMMAX =           8

 POTCAR:    PAW_PBE O 08Apr2002                   
   SHA256 =  818f92134a0a090dccd8ba1447fa70422a3b330e708bb4f08108d8ae51209ddf O/POTCAR              
   COPYR  = (c) Copyright 08Apr2002 Georg Kresse                                                    
   COPYR  = This file is part of the software VASP. Any use, copying, and all other rights are regul
   COPYR  = If you do not have a valid VASP license, you may not use, copy or distribute this file. 
   VRHFIN =O: s2p4                                                                                  
   LEXCH  = PE                                                                                      
   EATOM  =   432.3788 eV,   31.7789 Ry                                                             
                                                                                                    
   TITEL  = PAW_PBE O 08Apr2002                                                                     
   LULTRA =        F    use ultrasoft PP ?                                                          
   IUNSCR =        1    unscreen: 0-lin 1-nonlin 2-no                                               
   RPACOR =    1.200    partial core radius                                                         
   POMASS =   16.000; ZVAL   =    6.000    mass and valenz                                          
   RCORE  =    1.520    outmost cutoff radius                                                       
   RWIGS  =    1.550; RWIGS  =    0.820    wigner-seitz radius (au A)                               
   ENMAX  =  400.000; ENMIN  =  300.000 eV                                                          
   ICORE  =        2    local potential                                                             
   LCOR   =        T    correct aug charges                                                         
   LPAW   =        T    paw PP                                                                      
   EAUG   =  605.392                                                                                
   DEXC   =    0.000                                                                                
   RMAX   =    1.553    core radius for proj-oper                                                   
   RAUG   =    1.300    factor for augmentation sphere                                              
   RDEP   =    1.550    radius for radial grids                                                     
   RDEPT  =    1.329    core radius for aug-charge                                                  
                                                                                                    
   Atomic configuration                                                                             
    4 entries                                                                                       
     n  l   j            E        occ.                                                              
     1  0  0.50      -514.6923   2.0000                                                             
     2  0  0.50       -23.9615   2.0000                                                             
     2  1  0.50        -9.0305   4.0000                                                             
     3  2  1.50        -9.5241   0.0000                                                             
   Description                                                                                      
     l       E           TYP  RCUT    TYP  RCUT                                                     
     0    -23.9615318     23  1.200                                                                 
     0     -9.5240782     23  1.200                                                                 
     1     -9.0304911     23  1.520                                                                 
     1      8.1634956     23  1.520                                                                 
     2     -9.5240782      7  1.500                                                                 
  local pseudopotential read in
  partial core-charges read in
  partial kinetic energy density read in
  kinetic energy density of atom read in
  atomic valenz-charges read in
  non local Contribution for L=           0  read in
    real space projection operators read in
  non local Contribution for L=           0  read in
    real space projection operators read in
  non local Contribution for L=           1  read in
    real space projection operators read in
  non local Contribution for L=           1  read in
    real space projection operators read in
    PAW grid and wavefunctions read in

   number of l-projection  operators is LMAX  =           4
   number of lm-projection operators is LMMAX =           8

 POTCAR:    PAW_PBE Mg_pv 13Apr2007               
   SHA256 =  f474ac0dd33840b9ae76c01d57fea79fdf77cdfbb07d5ade72c65f83c709b62b Mg_pv/POTCAR          
   COPYR  = (c) Copyright 13Apr2007 Georg Kresse                                                    
   COPYR  = This file is part of the software VASP. Any use, copying, and all other rights are regul
   COPYR  = If you do not have a valid VASP license, you may not use, copy or distribute this file. 
   VRHFIN =Mg: p6s2                                                                                 
   LEXCH  = PE                                                                                      
   EATOM  =  1056.7344 eV,   77.6678 Ry                                                             
                                                                                                    
   TITEL  = PAW_PBE Mg_pv 13Apr2007                                                                 
   LULTRA =        F    use ultrasoft PP ?                                                          
   IUNSCR =        1    unscreen: 0-lin 1-nonlin 2-no                                               
   RPACOR =    1.500    partial core radius                                                         
   POMASS =   24.305; ZVAL   =    8.000    mass and valenz                                          
   RCORE  =    2.000    outmost cutoff radius                                                       
   RWIGS  =    2.000; RWIGS  =    1.058    wigner-seitz radius (au A)                               
   ENMAX  =  403.929; ENMIN  =  302.947 eV                                                          
   RCLOC  =    1.506    cutoff for local pot                                                        
   LCOR   =        T    correct aug charges                                                         
   LPAW   =        T    paw PP                                                                      
   EAUG   =  758.780                                                                                
   DEXC   =    0.000                                                                                
   RMAX   =    2.045    core radius for proj-oper                                                   
   RAUG   =    1.300    factor for augmentation sphere                                              
   RDEP   =    2.025    radius for radial grids                                                     
   RDEPT  =    1.557    core radius for aug-charge                                                  
                                                                                                    
   Atomic configuration                                                                             
    5 entries                                                                                       
     n  l   j            E        occ.                                                              
     1  0  0.50     -1259.6230   2.0000                                                             
     2  0  0.50       -79.8442   2.0000                                                             
     2  1  1.50       -46.6121   6.0000                                                             
     3  0  0.50        -4.7055   2.0000                                                             
     3  2  1.50        -1.3606   0.0000                                                             
   Description                                                                                      
     l       E           TYP  RCUT    TYP  RCUT                                                     
     1    -46.6121073     23  1.600                                                                 
     1      2.7211652     23  1.600                                                                 
     0     -4.7054661     23  2.000                                                                 
     0     61.2262170     23  2.000                                                                 
     2     -1.3605826     23  2.000                                                                 
  local pseudopotential read in
  partial core-charges read in
  partial kinetic energy density read in
  atomic valenz-charges read in
  non local Contribution for L=           1  read in
    real space projection operators read in
  non local Contribution for L=           1  read in
    real space projection operators read in
  non local Contribution for L=           0  read in
    real space projection operators read in
  non local Contribution for L=           0  read in
    real space projection operators read in
  non local Contribution for L=           2  read in
    real space projection operators read in
    PAW grid and wavefunctions read in

   number of l-projection  operators is LMAX  =           5
   number of lm-projection operators is LMMAX =          13

 POTCAR:    PAW_PBE O 08Apr2002                   
   SHA256 =  818f92134a0a090dccd8ba1447fa70422a3b330e708bb4f08108d8ae51209ddf O/POTCAR              
   COPYR  = (c) Copyright 08Apr2002 Georg Kresse                                                    
   COPYR  = This file is part of the software VASP. Any use, copying, and all other rights are regul
   COPYR  = If you do not have a valid VASP license, you may not use, copy or distribute this file. 
   VRHFIN =O: s2p4                                                                                  
   LEXCH  = PE                                                                                      
   EATOM  =   432.3788 eV,   31.7789 Ry                                                             
                                                                                                    
   TITEL  = PAW_PBE O 08Apr2002                                                                     
   LULTRA =        F    use ultrasoft PP ?                                                          
   IUNSCR =        1    unscreen: 0-lin 1-nonlin 2-no                                               
   RPACOR =    1.200    partial core radius                                                         
   POMASS =   16.000; ZVAL   =    6.000    mass and valenz                                          
   RCORE  =    1.520    outmost cutoff radius                                                       
   RWIGS  =    1.550; RWIGS  =    0.820    wigner-seitz radius (au A)                               
   ENMAX  =  400.000; ENMIN  =  300.000 eV                                                          
   ICORE  =        2    local potential                                                             
   LCOR   =        T    correct aug charges                                                         
   LPAW   =        T    paw PP                                                                      
   EAUG   =  605.392                                                                                
   DEXC   =    0.000                                                                                
   RMAX   =    1.553    core radius for proj-oper                                                   
   RAUG   =    1.300    factor for augmentation sphere                                              
   RDEP   =    1.550    radius for radial grids                                                     
   RDEPT  =    1.329    core radius for aug-charge                                                  
                                                                                                    
   Atomic configuration                                                                             
    4 entries                                                                                       
     n  l   j            E        occ.                                                              
     1  0  0.50      -514.6923   2.0000                                                             
     2  0  0.50       -23.9615   2.0000                                                             
     2  1  0.50        -9.0305   4.0000                                                             
     3  2  1.50        -9.5241   0.0000                                                             
   Description                                                                                      
     l       E           TYP  RCUT    TYP  RCUT                                                     
     0    -23.9615318     23  1.200                                                                 
     0     -9.5240782     23  1.200                                                                 
     1     -9.0304911     23  1.520                                                                 
     1      8.1634956     23  1.520                                                                 
     2     -9.5240782      7  1.500                                                                 
  local pseudopotential read in
  partial core-charges read in
  partial kinetic energy density read in
  kinetic energy density of atom read in
  atomic valenz-charges read in
  non local Contribution for L=           0  read in
    real space projection operators read in
  non local Contribution for L=           0  read in
    real space projection operators read in
  non local Contribution for L=           1  read in
    real space projection operators read in
  non local Contribution for L=           1  read in
    real space projection operators read in
    PAW grid and wavefunctions read in

   number of l-projection  operators is LMAX  =           4
   number of lm-projection operators is LMMAX =           8

 -----------------------------------------------------------------------------
|                                                                             |
|               ----> ADVICE to this user running VASP <----                  |
|                                                                             |
|     You have a (more or less) 'large supercell' and for larger cells it     |
|     might be more efficient to use real-space projection operators.         |
|     Therefore, try LREAL= Auto in the INCAR file.                           |
|     Mind: For very accurate calculation, you might also keep the            |
|     reciprocal projection scheme (i.e. LREAL=.FALSE.).                      |
|                                                                             |
 -----------------------------------------------------------------------------

 -----------------------------------------------------------------------------
|                                                                             |
|               ----> ADVICE to this user running VASP <----                  |
|                                                                             |
|     You enforced a specific xc type in the INCAR file but a different       |
|     type was found in the POTCAR file.                                      |
|     I HOPE YOU KNOW WHAT YOU ARE DOING!                                     |
|                                                                             |
 -----------------------------------------------------------------------------

  PAW_PBE C 08Apr2002                   :
 energy of atom  1       EATOM= -147.1560
 kinetic energy error for atom=    0.0057 (will be added to EATOM!!)
  PAW_PBE O 08Apr2002                   :
 energy of atom  2       EATOM= -432.3788
 kinetic energy error for atom=    0.0168 (will be added to EATOM!!)
  PAW_PBE Mg_pv 13Apr2007               :
 energy of atom  3       EATOM=-1056.7344
 kinetic energy error for atom=    0.0221 (will be added to EATOM!!)
  PAW_PBE O 08Apr2002                   :
 energy of atom  4       EATOM= -432.3788
 kinetic energy error for atom=    0.0168 (will be added to EATOM!!)


 POSCAR:  C  O Mg  O
  positions in direct lattice
  No initial velocities read in
 -----------------------------------------------------------------------------
|                                                                             |
|           W    W    AA    RRRRR   N    N  II  N    N   GGGG   !!!           |
|           W    W   A  A   R    R  NN   N  II  NN   N  G    G  !!!           |
|           W    W  A    A  R    R  N N  N  II  N N  N  G       !!!           |
|           W WW W  AAAAAA  RRRRR   N  N N  II  N  N N  G  GGG   !            |
|           WW  WW  A    A  R   R   N   NN  II  N   NN  G    G                |
|           W    W  A    A  R    R  N    N  II  N    N   GGGG   !!!           |
|                                                                             |
|     Specifying the vdW parameters                                           |
|     VDW_S8 = 1.747                                                          |
|     VDW_A1 = 0.536                                                          |
|     VDW_A2 = 3.073                                                          |
|     in the INCAR file will overwrite the defaults for revpbe. Please        |
|     make sure that is what you intended.                                    |
|                                                                             |
 -----------------------------------------------------------------------------

 exchange correlation table for  LEXCH =       40
   RHO(1)=    0.500       N(1)  =     2000
   RHO(2)=  100.500       N(2)  =     4000



--------------------------------------------------------------------------------------------------------


 ion  position               nearest neighbor table
   1  0.500  0.500  0.765-   2 1.15
   2  0.500  0.500  0.819-   1 1.15
   3  0.000  0.750  0.352-  35 2.11  37 2.11  38 2.11  45 2.11  54 2.11
   4  0.250  0.000  0.352-  36 2.11  37 2.11  38 2.11  46 2.11  53 2.11
   5  0.000  0.000  0.451-  37 2.11  36 2.11  35 2.11  43 2.11  52 2.11  41 2.12
   6  0.250  0.750  0.451-  38 2.11  36 2.11  35 2.11  44 2.11  51 2.11  42 2.12
   7  0.000  0.750  0.550-  49 2.11  42 2.11  58 2.11  41 2.11  35 2.12  39 2.15
   8  0.250  0.000  0.550-  57 2.11  50 2.11  42 2.11  41 2.11  36 2.12  40 2.15
   9  0.000  0.000  0.649-  39 2.11  40 2.11  47 2.11  56 2.11  41 2.11
  10  0.250  0.750  0.649-  42 2.11  40 2.11  39 2.11  48 2.11  55 2.11
  11  0.000  0.250  0.352-  43 2.11  37 2.11  45 2.11  46 2.11  62 2.11
  12  0.250  0.500  0.352-  44 2.11  38 2.11  45 2.11  46 2.11  61 2.11
  13  0.000  0.500  0.451-  45 2.11  43 2.11  44 2.11  35 2.11  60 2.11  49 2.12
  14  0.250  0.250  0.451-  46 2.11  43 2.11  44 2.11  36 2.11  59 2.11  50 2.12
  15  0.000  0.250  0.550-  49 2.11  50 2.11  66 2.11  41 2.11  43 2.12  47 2.15
  16  0.250  0.500  0.550-  65 2.11  50 2.11  42 2.11  49 2.11  44 2.13  48 2.15
  17  0.000  0.500  0.649-  48 2.10  64 2.10  49 2.11  47 2.11  39 2.11
  18  0.250  0.250  0.649-  50 2.11  47 2.11  40 2.11  48 2.11  63 2.11
  19  0.500  0.750  0.352-  51 2.11  38 2.11  53 2.11  54 2.11  61 2.11
  20  0.750  0.000  0.352-  52 2.11  37 2.11  53 2.11  54 2.11  62 2.11
  21  0.500  0.000  0.451-  53 2.11  51 2.11  52 2.11  36 2.11  59 2.11  57 2.12
  22  0.750  0.750  0.451-  54 2.11  51 2.11  52 2.11  35 2.11  60 2.11  58 2.12
  23  0.500  0.750  0.550-  65 2.11  58 2.11  42 2.11  57 2.11  51 2.13  55 2.15
  24  0.750  0.000  0.550-  57 2.11  58 2.11  66 2.11  41 2.11  52 2.12  56 2.15
  25  0.500  0.000  0.649-  55 2.10  63 2.10  57 2.11  40 2.11  56 2.11
  26  0.750  0.750  0.649-  58 2.11  56 2.11  39 2.11  55 2.11  64 2.11
  27  0.500  0.250  0.352-  59 2.11  53 2.11  46 2.11  61 2.11  62 2.11
  28  0.750  0.500  0.352-  60 2.11  54 2.11  45 2.11  61 2.11  62 2.11
  29  0.500  0.500  0.451-  61 2.11  51 2.11  59 2.11  60 2.11  44 2.11  65 2.13
  30  0.750  0.250  0.451-  62 2.11  52 2.11  59 2.11  60 2.11  43 2.11  66 2.12
  31  0.500  0.250  0.550-  65 2.11  50 2.11  66 2.11  57 2.11  59 2.13  63 2.15
  32  0.750  0.500  0.550-  65 2.11  58 2.11  66 2.11  49 2.11  60 2.13  64 2.15
  33  0.500  0.500  0.651-  48 2.12  55 2.12  63 2.12  64 2.12  65 2.14
  34  0.750  0.250  0.649-  66 2.11  56 2.11  47 2.11  64 2.11  63 2.11
  35  0.000  0.750  0.451-   3 2.11   5 2.11   6 2.11  13 2.11  22 2.11   7 2.12
  36  0.250  0.000  0.451-   4 2.11   5 2.11   6 2.11  14 2.11  21 2.11   8 2.12
  37  0.000  0.000  0.352-   5 2.11   4 2.11   3 2.11  11 2.11  20 2.11
  38  0.250  0.750  0.352-   6 2.11   4 2.11   3 2.11  12 2.11  19 2.11
  39  0.000  0.750  0.651-   9 2.11  10 2.11  26 2.11  17 2.11   7 2.15
  40  0.250  0.000  0.651-   9 2.11  10 2.11  18 2.11  25 2.11   8 2.15
  41  0.000  0.000  0.550-   9 2.11   8 2.11   7 2.11  15 2.11  24 2.11   5 2.12
  42  0.250  0.750  0.550-  10 2.11   8 2.11   7 2.11  16 2.11  23 2.11   6 2.12
  43  0.000  0.250  0.451-  11 2.11   5 2.11  13 2.11  14 2.11  30 2.11  15 2.12
  44  0.250  0.500  0.451-  12 2.11   6 2.11  13 2.11  14 2.11  29 2.11  16 2.13
  45  0.000  0.500  0.352-  13 2.11  11 2.11  12 2.11   3 2.11  28 2.11
  46  0.250  0.250  0.352-  14 2.11  11 2.11  12 2.11   4 2.11  27 2.11
  47  0.000  0.250  0.651-   9 2.11  18 2.11  34 2.11  17 2.11  15 2.15
  48  0.249  0.500  0.651-  17 2.10  10 2.11  18 2.11  33 2.12  16 2.15
  49  0.000  0.500  0.550-  17 2.11  15 2.11   7 2.11  16 2.11  32 2.11  13 2.12
  50  0.250  0.250  0.550-  18 2.11  15 2.11   8 2.11  16 2.11  31 2.11  14 2.12
  51  0.500  0.750  0.451-  19 2.11   6 2.11  21 2.11  22 2.11  29 2.11  23 2.13
  52  0.750  0.000  0.451-  20 2.11   5 2.11  21 2.11  22 2.11  30 2.11  24 2.12
  53  0.500  0.000  0.352-  21 2.11  19 2.11  20 2.11   4 2.11  27 2.11
  54  0.750  0.750  0.352-  22 2.11  19 2.11  20 2.11   3 2.11  28 2.11
  55  0.500  0.751  0.651-  25 2.10  10 2.11  26 2.11  33 2.12  23 2.15
  56  0.750  0.000  0.651-   9 2.11  26 2.11  34 2.11  25 2.11  24 2.15
  57  0.500  0.000  0.550-  25 2.11  24 2.11   8 2.11  23 2.11  31 2.11  21 2.12
  58  0.750  0.750  0.550-  26 2.11  24 2.11   7 2.11  32 2.11  23 2.11  22 2.12
  59  0.500  0.250  0.451-  27 2.11  21 2.11  14 2.11  29 2.11  30 2.11  31 2.13
  60  0.750  0.500  0.451-  28 2.11  22 2.11  13 2.11  29 2.11  30 2.11  32 2.13
  61  0.500  0.500  0.352-  29 2.11  19 2.11  27 2.11  28 2.11  12 2.11
  62  0.750  0.250  0.352-  30 2.11  20 2.11  27 2.11  28 2.11  11 2.11
  63  0.500  0.249  0.651-  25 2.10  18 2.11  34 2.11  33 2.12  31 2.15
  64  0.751  0.500  0.651-  17 2.10  26 2.11  34 2.11  33 2.12  32 2.15
  65  0.500  0.500  0.550-  16 2.11  23 2.11  31 2.11  32 2.11  29 2.13  33 2.14
  66  0.750  0.250  0.550-  34 2.11  24 2.11  15 2.11  32 2.11  31 2.11  30 2.12

  LATTYP: Found a simple tetragonal cell.
 ALAT       =     8.4409846542
 C/A-ratio  =     2.5270438657
  
  Lattice vectors:
  
 A1 = (   8.4409846542,   0.0000000000,   0.0000000000)
 A2 = (   0.0000000000,   8.4409846542,   0.0000000000)
 A3 = (   0.0000000000,   0.0000000000,  21.3307384906)


Analysis of symmetry for initial positions (statically):
=====================================================================
 Subroutine PRICEL returns:
 Original cell was already a primitive cell.
 

 Routine SETGRP: Setting up the symmetry group for a 
 simple tetragonal supercell.


 Subroutine GETGRP returns: Found  8 space group operations
 (whereof  8 operations were pure point group operations)
 out of a pool of 16 trial point group operations.


The static configuration has the point symmetry C_4v.


Analysis of symmetry for dynamics (positions and initial velocities):
=====================================================================
 Subroutine PRICEL returns:
 Original cell was already a primitive cell.
 

 Routine SETGRP: Setting up the symmetry group for a 
 simple tetragonal supercell.


 Subroutine GETGRP returns: Found  8 space group operations
 (whereof  8 operations were pure point group operations)
 out of a pool of 16 trial point group operations.


The dynamic configuration has the point symmetry C_4v.


Analysis of constrained symmetry for selective dynamics:
=====================================================================
 Subroutine PRICEL returns:
 Original cell was already a primitive cell.
 

 Routine SETGRP: Setting up the symmetry group for a 
 simple tetragonal supercell.


 Subroutine GETGRP returns: Found  8 space group operations
 (whereof  8 operations were pure point group operations)
 out of a pool of 16 trial point group operations.


The constrained configuration has the point symmetry C_4v.


 Subroutine INISYM returns: Found  8 space group operations
 (whereof  8 operations are pure point group operations),
 and found     1 'primitive' translations


----------------------------------------------------------------------------------------

                                     Primitive cell                                     

  volume of cell :    1519.8199

  direct lattice vectors                    reciprocal lattice vectors
     8.440984654  0.000000000  0.000000000     0.118469591  0.000000000  0.000000000
     0.000000000  8.440984654  0.000000000     0.000000000  0.118469591  0.000000000
     0.000000000  0.000000000 21.330738491     0.000000000  0.000000000  0.046880702

  length of vectors
     8.440984654  8.440984654 21.330738491     0.118469591  0.118469591  0.046880702

  position of ions in fractional coordinates (direct lattice)
     0.500000000  0.500000000  0.765053803
     0.500000000  0.500000000  0.818817521
     0.000000000  0.750000000  0.351605267
     0.250000000  0.000000000  0.351605267
     0.000000000  0.000000000  0.450535089
     0.250000000  0.750000000  0.450535089
     0.000000000  0.749939268  0.550083239
     0.250060732  0.000000000  0.550083239
     0.000000000  0.000000000  0.648745309
     0.249858327  0.750141673  0.648569547
     0.000000000  0.250000000  0.351605267
     0.250000000  0.500000000  0.351605267
     0.000000000  0.500000000  0.450535089
     0.250000000  0.250000000  0.450535089
     0.000000000  0.250060732  0.550083239
     0.250378379  0.500000000  0.550219524
     0.000000000  0.500000000  0.648615280
     0.249858327  0.249858327  0.648569547
     0.500000000  0.750000000  0.351605267
     0.750000000  0.000000000  0.351605267
     0.500000000  0.000000000  0.450535089
     0.750000000  0.750000000  0.450535089
     0.500000000  0.749621621  0.550219524
     0.749939268  0.000000000  0.550083239
     0.500000000  0.000000000  0.648615280
     0.750141673  0.750141673  0.648569547
     0.500000000  0.250000000  0.351605267
     0.750000000  0.500000000  0.351605267
     0.500000000  0.500000000  0.450535089
     0.750000000  0.250000000  0.450535089
     0.500000000  0.250378379  0.550219524
     0.749621621  0.500000000  0.550219524
     0.500000000  0.500000000  0.650616960
     0.750141673  0.249858327  0.648569547
     0.000000000  0.750000000  0.450535089
     0.250000000  0.000000000  0.450535089
     0.000000000  0.000000000  0.351605267
     0.250000000  0.750000000  0.351605267
     0.000000000  0.750218533  0.650979255
     0.249781467  0.000000000  0.650979255
     0.000000000  0.000000000  0.549809890
     0.249945770  0.750054230  0.549859113
     0.000000000  0.250000000  0.450535089
     0.250000000  0.500000000  0.450535089
     0.000000000  0.500000000  0.351605267
     0.250000000  0.250000000  0.351605267
     0.000000000  0.249781467  0.650979255
     0.248822710  0.500000000  0.650882872
     0.000000000  0.500000000  0.549762666
     0.249945770  0.249945770  0.549859113
     0.500000000  0.750000000  0.450535089
     0.750000000  0.000000000  0.450535089
     0.500000000  0.000000000  0.351605267
     0.750000000  0.750000000  0.351605267
     0.500000000  0.751177290  0.650882872
     0.750218533  0.000000000  0.650979255
     0.500000000  0.000000000  0.549762666
     0.750054230  0.750054230  0.549859113
     0.500000000  0.250000000  0.450535089
     0.750000000  0.500000000  0.450535089
     0.500000000  0.500000000  0.351605267
     0.750000000  0.250000000  0.351605267
     0.500000000  0.248822710  0.650882872
     0.751177290  0.500000000  0.650882872
     0.500000000  0.500000000  0.550231357
     0.750054230  0.249945770  0.549859113

  ion indices of the primitive-cell ions
   primitive index   ion index
                 1           1
                 2           2
                 3           3
                 4           4
                 5           5
                 6           6
                 7           7
                 8           8
                 9           9
                10          10
                11          11
                12          12
                13          13
                14          14
                15          15
                16          16
                17          17
                18          18
                19          19
                20          20
                21          21
                22          22
                23          23
                24          24
                25          25
                26          26
                27          27
                28          28
                29          29
                30          30
                31          31
                32          32
                33          33
                34          34
                35          35
                36          36
                37          37
                38          38
                39          39
                40          40
                41          41
                42          42
                43          43
                44          44
                45          45
                46          46
                47          47
                48          48
                49          49
                50          50
                51          51
                52          52
                53          53
                54          54
                55          55
                56          56
                57          57
                58          58
                59          59
                60          60
                61          61
                62          62
                63          63
                64          64
                65          65
                66          66

----------------------------------------------------------------------------------------



 KPOINTS: pymatgen v2020.8.13 with grid density = 

Automatic generation of k-mesh.
 Grid dimensions read from file:
 generate k-points for:    2    2    1

 Generating k-lattice:

  Cartesian coordinates                     Fractional coordinates (reciprocal lattice)
     0.059234796  0.000000000  0.000000000     0.500000000  0.000000000  0.000000000
     0.000000000  0.059234796  0.000000000     0.000000000  0.500000000  0.000000000
     0.000000000  0.000000000  0.046880702     0.000000000  0.000000000  1.000000000

  Length of vectors
     0.059234796  0.059234796  0.046880702

  Shift w.r.t. Gamma in fractional coordinates (k-lattice)
     0.000000000  0.000000000  0.000000000

 
 Subroutine IBZKPT returns following result:
 ===========================================
 
 Found      3 irreducible k-points:
 
 Following reciprocal coordinates:
            Coordinates               Weight
  0.000000  0.000000  0.000000      1.000000
  0.500000  0.000000  0.000000      2.000000
  0.500000  0.500000  0.000000      1.000000
 
 Following cartesian coordinates:
            Coordinates               Weight
  0.000000  0.000000  0.000000      1.000000
  0.059235  0.000000  0.000000      2.000000
  0.059235  0.059235  0.000000      1.000000
 


--------------------------------------------------------------------------------------------------------




 Dimension of arrays:
   k-points           NKPTS =      3   k-points in BZ     NKDIM =      3   number of bands    NBANDS=    320
   number of dos      NEDOS =    301   number of ions     NIONS =     66
   non local maximal  LDIM  =      5   non local SUM 2l+1 LMDIM =     13
   total plane-waves  NPLWV = 373248
   max r-space proj   IRMAX =      1   max aug-charges    IRDMAX=   5039
   dimension x,y,z NGX =    54 NGY =   54 NGZ =  128
   dimension x,y,z NGXF=   108 NGYF=  108 NGZF=  256
   support grid    NGXF=   108 NGYF=  108 NGZF=  256
   ions per type =               1   1  32  32
   NGX,Y,Z   is equivalent  to a cutoff of  10.64, 10.64,  9.98 a.u.
   NGXF,Y,Z  is equivalent  to a cutoff of  21.27, 21.27, 19.95 a.u.

 SYSTEM =  MgO-rocksalt                            
 POSCAR =   C  O Mg  O                             

 Startparameter for this run:
   NWRITE =      2    write-flag & timer
   PREC   = normal    normal or accurate (medium, high low for compatibility)
   ISTART =      0    job   : 0-new  1-cont  2-samecut
   ICHARG =      2    charge: 1-file 2-atom 10-const
   ISPIN  =      1    spin polarized calculation?
   LNONCOLLINEAR =      F non collinear calculations
   LSORBIT =      F    spin-orbit coupling
   INIWAV =      1    electr: 0-lowe 1-rand  2-diag
   LASPH  =      T    aspherical Exc in radial PAW
 Electronic Relaxation 1
   ENCUT  =  600.0 eV  44.10 Ry    6.64 a.u.  16.86 16.86 42.60*2*pi/ulx,y,z
   ENINI  =  600.0     initial cutoff
   ENAUG  =  758.8 eV  augmentation charge cutoff
   NELM   =    200;   NELMIN=  8; NELMDL= -5     # of ELM steps 
   EDIFF  = 0.1E-04   stopping-criterion for ELM
   LREAL  =      F    real-space projection
   NLSPLINE    = F    spline interpolate recip. space projectors
   LCOMPAT=      F    compatible to vasp.4.4
   GGA_COMPAT  = T    GGA compatible to vasp.4.4-vasp.4.6
   LMAXPAW     = -100 max onsite density
   LMAXMIX     =    2 max onsite mixed and CHGCAR
   VOSKOWN=      0    Vosko Wilk Nusair interpolation
   ROPT   =    0.00000   0.00000   0.00000   0.00000
 Ionic relaxation
   EDIFFG = 0.1E-03   stopping-criterion for IOM
   NSW    =      0    number of steps for IOM
   NBLOCK =      1;   KBLOCK =      1    inner block; outer block 
   IBRION =     -1    ionic relax: 0-MD 1-quasi-New 2-CG
   NFREE  =      0    steps in history (QN), initial steepest desc. (CG)
   ISIF   =      2    stress and relaxation
   IWAVPR =     10    prediction:  0-non 1-charg 2-wave 3-comb
   ISYM   =      2    0-nonsym 1-usesym 2-fastsym
   LCORR  =      T    Harris-Foulkes like correction to forces

   POTIM  = 0.5000    time-step for ionic-motion
   TEIN   =    0.0    initial temperature
   TEBEG  =    0.0;   TEEND  =   0.0 temperature during run
   SMASS  =  -3.00    Nose mass-parameter (am)
   estimated Nose-frequenzy (Omega)   =  0.10E-29 period in steps = 0.13E+47 mass=  -0.163E-26a.u.
   SCALEE = 1.0000    scale energy and forces
   NPACO  =    256;   APACO  = 10.0  distance and # of slots for P.C.
   PSTRESS=    0.0 pullay stress

  Mass of Ions in am
   POMASS =  12.01 16.00 24.30 16.00
  Ionic Valenz
   ZVAL   =   4.00  6.00  8.00  6.00
  Atomic Wigner-Seitz radii
   RWIGS  =  -1.00 -1.00 -1.00 -1.00
  virtual crystal weights 
   VCA    =   1.00  1.00  1.00  1.00
   NELECT =     458.0000    total number of electrons
   NUPDOWN=      -1.0000    fix difference up-down

 DOS related values:
   EMIN   =  10.00;   EMAX   =-10.00  energy-range for DOS
   EFERMI =   0.00
   ISMEAR =     0;   SIGMA  =   0.05  broadening in eV -4-tet -1-fermi 0-gaus

 Electronic relaxation 2 (details)
   IALGO  =     58    algorithm
   LDIAG  =      T    sub-space diagonalisation (order eigenvalues)
   LSUBROT=      F    optimize rotation matrix (better conditioning)
   TURBO    =      0    0=normal 1=particle mesh
   IRESTART =      0    0=no restart 2=restart with 2 vectors
   NREBOOT  =      0    no. of reboots
   NMIN     =      0    reboot dimension
   EREF     =   0.00    reference energy to select bands
   IMIX   =      4    mixing-type and parameters
     AMIX     =   0.40;   BMIX     =  1.00
     AMIX_MAG =   1.60;   BMIX_MAG =  1.00
     AMIN     =   0.10
     WC   =   100.;   INIMIX=   1;  MIXPRE=   1;  MAXMIX= -45

 Intra band minimization:
   WEIMIN = 0.0000     energy-eigenvalue tresh-hold
   EBREAK =  0.78E-08  absolut break condition
   DEPER  =   0.30     relativ break condition  

   TIME   =   0.40     timestep for ELM

  volume/ion in A,a.u.               =      23.03       155.40
  Fermi-wavevector in a.u.,A,eV,Ry     =   1.097571  2.074108 16.390423  1.204662
  Thomas-Fermi vector in A             =   2.233933

 Write flags
   LWAVE        =      F    write WAVECAR
   LDOWNSAMPLE  =      F    k-point downsampling of WAVECAR
   LCHARG       =      F    write CHGCAR
   LVTOT        =      F    write LOCPOT, total local potential
   LVHAR        =      F    write LOCPOT, Hartree potential only
   LELF         =      F    write electronic localiz. function (ELF)
   LORBIT       =      0    0 simple, 1 ext, 2 COOP (PROOUT), +10 PAW based schemes


 Dipole corrections
   LMONO  =      F    monopole corrections only (constant potential shift)
   LDIPOL =      T    correct potential (dipole corrections)
   IDIPOL =      3    1-x, 2-y, 3-z, 4-all directions 
   EPSILON=  1.0000000 bulk dielectric constant

 Exchange correlation treatment:
   GGA     =    RE    GGA type
   LEXCH   =    40    internal setting for exchange type
   LIBXC   =     F    Libxc                    
   VOSKOWN =     0    Vosko Wilk Nusair interpolation
   LHFCALC =     F    Hartree Fock is set to
   LHFONE  =     F    Hartree Fock one center treatment
   AEXX    =    0.0000 exact exchange contribution

 Linear response parameters
   LEPSILON=     F    determine dielectric tensor
   LRPA    =     F    only Hartree local field effects (RPA)
   LNABLA  =     F    use nabla operator in PAW spheres
   LVEL    =     F    velocity operator in full k-point grid
   CSHIFT  =0.1000    complex shift for real part using Kramers Kronig
   OMEGAMAX=  -1.0    maximum frequency
   DEG_THRESHOLD= 0.2000000E-02 threshold for treating states as degnerate
   RTIME   =   -0.100 relaxation time in fs
  (WPLASMAI=    0.000 imaginary part of plasma frequency in eV, 0.658/RTIME)
   DFIELD  = 0.0000000 0.0000000 0.0000000 field for delta impulse in time

  Optional k-point grid parameters
   LKPOINTS_OPT  =     F    use optional k-point grid
   KPOINTS_OPT_MODE=     1    mode for optional k-point grid

 Orbital magnetization related:
   ORBITALMAG=     F  switch on orbital magnetization
   LCHIMAG   =     F  perturbation theory with respect to B field
   DQ        =  0.001000  dq finite difference perturbation B field
   LLRAUG    =     F  two centre corrections for induced B field



--------------------------------------------------------------------------------------------------------


 Static calculation
 charge density and potential will be updated during run
 non-spin polarized calculation
 Conjugate gradient for all bands (Freysoldt, et al. PRB 79, 241103 (2009))
 preconditioned conjugated gradient                                        
 perform sub-space diagonalisation
    before iterative eigenvector-optimisation
 modified Broyden-mixing scheme, WC =      100.0
 initial mixing is a Kerker type mixing with AMIX =  0.4000 and BMIX =      1.0000
 Hartree-type preconditioning will be used
 using additional bands           91
 reciprocal scheme for non local part
 use partial core corrections
 no Harris-corrections to forces 
 use gradient corrections 
 use of overlap-Matrix (Vanderbilt PP)
 Gauss-broadening in eV      SIGMA  =   0.05


--------------------------------------------------------------------------------------------------------


  energy-cutoff  :      600.00
  volume of cell :     1519.82
      direct lattice vectors                 reciprocal lattice vectors
     8.440984654  0.000000000  0.000000000     0.118469591  0.000000000  0.000000000
     0.000000000  8.440984654  0.000000000     0.000000000  0.118469591  0.000000000
     0.000000000  0.000000000 21.330738491     0.000000000  0.000000000  0.046880702

  length of vectors
     8.440984654  8.440984654 21.330738491     0.118469591  0.118469591  0.046880702



 k-points in units of 2pi/SCALE and weight: pymatgen v2020.8.13 with grid density = 
   0.00000000  0.00000000  0.00000000       0.250
   0.05923480  0.00000000  0.00000000       0.500
   0.05923480  0.05923480  0.00000000       0.250

 k-points in reciprocal lattice and weights: pymatgen v2020.8.13 with grid density = 
   0.00000000  0.00000000  0.00000000       0.250
   0.50000000  0.00000000  0.00000000       0.500
   0.50000000  0.50000000  0.00000000       0.250

 position of ions in fractional coordinates (direct lattice) 
   0.50000000  0.50000000  0.76505380
   0.50000000  0.50000000  0.81881752
   0.00000000  0.75000000  0.35160527
   0.25000000  0.00000000  0.35160527
   0.00000000  0.00000000  0.45053509
   0.25000000  0.75000000  0.45053509
   0.00000000  0.74993927  0.55008324
   0.25006073  0.00000000  0.55008324
   0.00000000  0.00000000  0.64874531
   0.24985833  0.75014167  0.64856955
   0.00000000  0.25000000  0.35160527
   0.25000000  0.50000000  0.35160527
   0.00000000  0.50000000  0.45053509
   0.25000000  0.25000000  0.45053509
   0.00000000  0.25006073  0.55008324
   0.25037838  0.50000000  0.55021952
   0.00000000  0.50000000  0.64861528
   0.24985833  0.24985833  0.64856955
   0.50000000  0.75000000  0.35160527
   0.75000000  0.00000000  0.35160527
   0.50000000  0.00000000  0.45053509
   0.75000000  0.75000000  0.45053509
   0.50000000  0.74962162  0.55021952
   0.74993927  0.00000000  0.55008324
   0.50000000  0.00000000  0.64861528
   0.75014167  0.75014167  0.64856955
   0.50000000  0.25000000  0.35160527
   0.75000000  0.50000000  0.35160527
   0.50000000  0.50000000  0.45053509
   0.75000000  0.25000000  0.45053509
   0.50000000  0.25037838  0.55021952
   0.74962162  0.50000000  0.55021952
   0.50000000  0.50000000  0.65061696
   0.75014167  0.24985833  0.64856955
   0.00000000  0.75000000  0.45053509
   0.25000000  0.00000000  0.45053509
   0.00000000  0.00000000  0.35160527
   0.25000000  0.75000000  0.35160527
   0.00000000  0.75021853  0.65097926
   0.24978147  0.00000000  0.65097926
   0.00000000  0.00000000  0.54980989
   0.24994577  0.75005423  0.54985911
   0.00000000  0.25000000  0.45053509
   0.25000000  0.50000000  0.45053509
   0.00000000  0.50000000  0.35160527
   0.25000000  0.25000000  0.35160527
   0.00000000  0.24978147  0.65097926
   0.24882271  0.50000000  0.65088287
   0.00000000  0.50000000  0.54976267
   0.24994577  0.24994577  0.54985911
   0.50000000  0.75000000  0.45053509
   0.75000000  0.00000000  0.45053509
   0.50000000  0.00000000  0.35160527
   0.75000000  0.75000000  0.35160527
   0.50000000  0.75117729  0.65088287
   0.75021853  0.00000000  0.65097926
   0.50000000  0.00000000  0.54976267
   0.75005423  0.75005423  0.54985911
   0.50000000  0.25000000  0.45053509
   0.75000000  0.50000000  0.45053509
   0.50000000  0.50000000  0.35160527
   0.75000000  0.25000000  0.35160527
   0.50000000  0.24882271  0.65088287
   0.75117729  0.50000000  0.65088287
   0.50000000  0.50000000  0.55023136
   0.75005423  0.24994577  0.54985911

 position of ions in cartesian coordinates  (Angst):
   4.22049233  4.22049233 16.31916259
   4.22049233  4.22049233 17.46598241
   0.00000000  6.33073849  7.50000000
   2.11024616  0.00000000  7.50000000
   0.00000000  0.00000000  9.61024616
   2.11024616  6.33073849  9.61024616
   0.00000000  6.33022585 11.73368172
   2.11075880  0.00000000 11.73368172
   0.00000000  0.00000000 13.83821654
   2.10905031  6.33193435 13.83446740
   0.00000000  2.11024616  7.50000000
   2.11024616  4.22049233  7.50000000
   0.00000000  4.22049233  9.61024616
   2.11024616  2.11024616  9.61024616
   0.00000000  2.11075880 11.73368172
   2.11344006  4.22049233 11.73658877
   0.00000000  4.22049233 13.83544293
   2.10905031  2.10905031 13.83446740
   4.22049233  6.33073849  7.50000000
   6.33073849  0.00000000  7.50000000
   4.22049233  0.00000000  9.61024616
   6.33073849  6.33073849  9.61024616
   4.22049233  6.32754460 11.73658877
   6.33022585  0.00000000 11.73368172
   4.22049233  0.00000000 13.83544293
   6.33193435  6.33193435 13.83446740
   4.22049233  2.11024616  7.50000000
   6.33073849  4.22049233  7.50000000
   4.22049233  4.22049233  9.61024616
   6.33073849  2.11024616  9.61024616
   4.22049233  2.11344006 11.73658877
   6.32754460  4.22049233 11.73658877
   4.22049233  4.22049233 13.87814023
   6.33193435  2.10905031 13.83446740
   0.00000000  6.33073849  9.61024616
   2.11024616  0.00000000  9.61024616
   0.00000000  0.00000000  7.50000000
   2.11024616  6.33073849  7.50000000
   0.00000000  6.33258312 13.88586825
   2.10840153  0.00000000 13.88586825
   0.00000000  0.00000000 11.72785099
   2.10978841  6.33119624 11.72890095
   0.00000000  2.11024616  9.61024616
   2.11024616  4.22049233  9.61024616
   0.00000000  4.22049233  7.50000000
   2.11024616  2.11024616  7.50000000
   0.00000000  2.10840153 13.88586825
   2.10030867  4.22049233 13.88381232
   0.00000000  4.22049233 11.72684365
   2.10978841  2.10978841 11.72890095
   4.22049233  6.33073849  9.61024616
   6.33073849  0.00000000  9.61024616
   4.22049233  0.00000000  7.50000000
   6.33073849  6.33073849  7.50000000
   4.22049233  6.34067598 13.88381232
   6.33258312  0.00000000 13.88586825
   4.22049233  0.00000000 11.72684365
   6.33119624  6.33119624 11.72890095
   4.22049233  2.11024616  9.61024616
   6.33073849  4.22049233  9.61024616
   4.22049233  4.22049233  7.50000000
   6.33073849  2.11024616  7.50000000
   4.22049233  2.10030867 13.88381232
   6.34067598  4.22049233 13.88381232
   4.22049233  4.22049233 11.73684118
   6.33119624  2.10978841 11.72890095



--------------------------------------------------------------------------------------------------------


 k-point   1 :   0.0000 0.0000 0.0000  plane waves:   50745
 k-point   2 :   0.5000 0.0000 0.0000  plane waves:   50798
 k-point   3 :   0.5000 0.5000 0.0000  plane waves:   50752

 maximum and minimum number of plane-waves per node :     12720    12632

 maximum number of plane-waves:     50798
 maximum index in each direction: 
   IXMAX=   16   IYMAX=   16   IZMAX=   42
   IXMIN=  -17   IYMIN=  -17   IZMIN=  -42


 parallel 3D FFT for wavefunctions:
    minimum data exchange during FFTs selected (reduces bandwidth)
 parallel 3D FFT for charge:
    minimum data exchange during FFTs selected (reduces bandwidth)


 total amount of memory used by VASP MPI-rank0    78528. kBytes
=======================================================================

   base      :      30000. kBytes
   nonl-proj :      29343. kBytes
   fftplans  :       3857. kBytes
   grid      :       5885. kBytes
   one-center:        137. kBytes
   wavefun   :       9306. kBytes

     INWAV:  cpu time      0.0001: real time      0.0003
 Broyden mixing: mesh for mixing (old mesh)
   NGX = 33   NGY = 33   NGZ = 85
  (NGX  =108   NGY  =108   NGZ  =256)
  gives a total of  92565 points

 initial charge density was supplied:
 charge density of overlapping atoms calculated
 number of electron     458.0000000 magnetization 
 keeping initial charge density in first step


--------------------------------------------------------------------------------------------------------


 Maximum index for augmentation-charges          334 (set IRDMAX)


--------------------------------------------------------------------------------------------------------


 First call to EWALD:  gamma=   0.154
 Maximum number of real-space cells 4x 4x 2
 Maximum number of reciprocal cells 2x 2x 5

    FEWALD:  cpu time      0.0021: real time      0.0021


--------------------------------------- Iteration      1(   1)  ---------------------------------------


    POTLOK:  cpu time      0.0345: real time      0.0352
    SETDIJ:  cpu time      0.1199: real time      0.1201
    TRIAL :  cpu time      4.7051: real time      4.7646
    CORREC:  cpu time      0.0011: real time      0.0011
    --------------------------------------------
      LOOP:  cpu time      4.8650: real time      4.9254

 eigenvalue-minimisations  :  2304
 total energy-change (2. order) : 0.4171444E+04  (-0.3074226E+05)
 number of electron     458.0000000 magnetization 
 augmentation part      458.0000000 magnetization 

 DIPCOR: dipole corrections for dipol
 direction  3 min pos     1,
 dipolmoment           0.000000      0.000000     -0.000264 electrons x Angstroem
 Tr[quadrupol]     -6318.707432

 energy correction for charged system         0.000000 eV
 dipol+quadrupol energy correction           -0.000000 eV
 added-field ion interaction          0.002135 eV  (added to PSCEN)


 Free energy of the ion-electron system (eV)
  ---------------------------------------------------
  alpha Z        PSCENC =       907.96623885
  Ewald energy   TEWEN  =    137143.22463369
  -Hartree energ DENC   =   -173242.07343057
  -exchange      EXHF   =         0.00000000
  -V(xc)+E(xc)   XCENC  =      1766.59399401
  PAW double counting   =     32340.89285313   -36127.75492224
  entropy T*S    EENTRO =        -0.02105058
  eigenvalues    EBANDS =     -6813.95987878
  atomic energy  EATOM  =     48196.57542979
  ---------------------------------------------------
  free energy    TOTEN  =      4171.44386730 eV

  energy without entropy =     4171.46491789  energy(sigma->0) =     4171.45439259


--------------------------------------------------------------------------------------------------------




--------------------------------------- Iteration      1(   2)  ---------------------------------------


    TRIAL :  cpu time      1.7206: real time      1.7208
    CORREC:  cpu time      0.0003: real time      0.0003
    --------------------------------------------
      LOOP:  cpu time      1.7265: real time      1.7335

 eigenvalue-minimisations  :  2304
 total energy-change (2. order) :-0.4287553E+04  (-0.4214146E+04)
 number of electron     458.0000000 magnetization 
 augmentation part      458.0000000 magnetization 

 DIPCOR: dipole corrections for dipol
 direction  3 min pos     1,
 dipolmoment           0.000000      0.000000     -0.000264 electrons x Angstroem
 Tr[quadrupol]     -6318.707432

 energy correction for charged system         0.000000 eV
 dipol+quadrupol energy correction           -0.000000 eV
 added-field ion interaction          0.002135 eV  (added to PSCEN)


 Free energy of the ion-electron system (eV)
  ---------------------------------------------------
  alpha Z        PSCENC =       907.96623885
  Ewald energy   TEWEN  =    137143.22463369
  -Hartree energ DENC   =   -173242.07343057
  -exchange      EXHF   =         0.00000000
  -V(xc)+E(xc)   XCENC  =      1766.59399401
  PAW double counting   =     32340.89285313   -36127.75492224
  entropy T*S    EENTRO =        -0.00000000
  eigenvalues    EBANDS =    -11101.53383801
  atomic energy  EATOM  =     48196.57542979
  ---------------------------------------------------
  free energy    TOTEN  =      -116.10904135 eV

  energy without entropy =     -116.10904135  energy(sigma->0) =     -116.10904135


--------------------------------------------------------------------------------------------------------




--------------------------------------- Iteration      1(   3)  ---------------------------------------


    TRIAL :  cpu time      1.7870: real time      1.7871
    CORREC:  cpu time      0.0003: real time      0.0003
    --------------------------------------------
      LOOP:  cpu time      1.7910: real time      1.7996

 eigenvalue-minimisations  :  2304
 total energy-change (2. order) :-0.3100621E+03  (-0.3080190E+03)
 number of electron     458.0000000 magnetization 
 augmentation part      458.0000000 magnetization 

 DIPCOR: dipole corrections for dipol
 direction  3 min pos     1,
 dipolmoment           0.000000      0.000000     -0.000264 electrons x Angstroem
 Tr[quadrupol]     -6318.707432

 energy correction for charged system         0.000000 eV
 dipol+quadrupol energy correction           -0.000000 eV
 added-field ion interaction          0.002135 eV  (added to PSCEN)


 Free energy of the ion-electron system (eV)
  ---------------------------------------------------
  alpha Z        PSCENC =       907.96623885
  Ewald energy   TEWEN  =    137143.22463369
  -Hartree energ DENC   =   -173242.07343057
  -exchange      EXHF   =         0.00000000
  -V(xc)+E(xc)   XCENC  =      1766.59399401
  PAW double counting   =     32340.89285313   -36127.75492224
  entropy T*S    EENTRO =        -0.00000000
  eigenvalues    EBANDS =    -11411.59590630
  atomic energy  EATOM  =     48196.57542979
  ---------------------------------------------------
  free energy    TOTEN  =      -426.17110964 eV

  energy without entropy =     -426.17110964  energy(sigma->0) =     -426.17110964


--------------------------------------------------------------------------------------------------------




--------------------------------------- Iteration      1(   4)  ---------------------------------------


    TRIAL :  cpu time      1.8819: real time      1.8820
    CORREC:  cpu time      0.0003: real time      0.0003
    --------------------------------------------
      LOOP:  cpu time      1.8946: real time      1.8949

 eigenvalue-minimisations  :  2432
 total energy-change (2. order) :-0.5929108E+01  (-0.5922709E+01)
 number of electron     458.0000000 magnetization 
 augmentation part      458.0000000 magnetization 

 DIPCOR: dipole corrections for dipol
 direction  3 min pos     1,
 dipolmoment           0.000000      0.000000     -0.000264 electrons x Angstroem
 Tr[quadrupol]     -6318.707432

 energy correction for charged system         0.000000 eV
 dipol+quadrupol energy correction           -0.000000 eV
 added-field ion interaction          0.002135 eV  (added to PSCEN)


 Free energy of the ion-electron system (eV)
  ---------------------------------------------------
  alpha Z        PSCENC =       907.96623885
  Ewald energy   TEWEN  =    137143.22463369
  -Hartree energ DENC   =   -173242.07343057
  -exchange      EXHF   =         0.00000000
  -V(xc)+E(xc)   XCENC  =      1766.59399401
  PAW double counting   =     32340.89285313   -36127.75492224
  entropy T*S    EENTRO =        -0.00000000
  eigenvalues    EBANDS =    -11417.52501388
  atomic energy  EATOM  =     48196.57542979
  ---------------------------------------------------
  free energy    TOTEN  =      -432.10021721 eV

  energy without entropy =     -432.10021721  energy(sigma->0) =     -432.10021721


--------------------------------------------------------------------------------------------------------




--------------------------------------- Iteration      1(   5)  ---------------------------------------


    TRIAL :  cpu time      1.7219: real time      1.7220
    CORREC:  cpu time      0.0003: real time      0.0003
    CHARGE:  cpu time      0.0559: real time      0.0560
    --------------------------------------------
      LOOP:  cpu time      1.7900: real time      1.7905

 eigenvalue-minimisations  :  2368
 total energy-change (2. order) :-0.7182836E-01  (-0.7182553E-01)
 number of electron     457.9999390 magnetization 
 augmentation part      159.7013662 magnetization 

 DIPCOR: dipole corrections for dipol
 direction  3 min pos     1,
 dipolmoment           0.000000      0.000000     -0.000264 electrons x Angstroem
 Tr[quadrupol]     -6318.707432

 energy correction for charged system         0.000000 eV
 dipol+quadrupol energy correction           -0.000000 eV
 added-field ion interaction          0.002135 eV  (added to PSCEN)


 Free energy of the ion-electron system (eV)
  ---------------------------------------------------
  alpha Z        PSCENC =       907.96623885
  Ewald energy   TEWEN  =    137143.22463369
  -Hartree energ DENC   =   -173242.07343057
  -exchange      EXHF   =         0.00000000
  -V(xc)+E(xc)   XCENC  =      1766.59399401
  PAW double counting   =     32340.89285313   -36127.75492224
  entropy T*S    EENTRO =        -0.00000000
  eigenvalues    EBANDS =    -11417.59684223
  atomic energy  EATOM  =     48196.57542979
  ---------------------------------------------------
  free energy    TOTEN  =      -432.17204557 eV

  energy without entropy =     -432.17204557  energy(sigma->0) =     -432.17204557


--------------------------------------------------------------------------------------------------------




--------------------------------------- Iteration      1(   6)  ---------------------------------------


    POTLOK:  cpu time      0.0217: real time      0.0217
    SETDIJ:  cpu time      0.1155: real time      0.1155
    TRIAL :  cpu time      0.5672: real time      0.5685
    CORREC:  cpu time      0.3909: real time      0.3911
    CHARGE:  cpu time      0.0411: real time      0.0411
    --------------------------------------------
      LOOP:  cpu time      1.1486: real time      1.1505

 eigenvalue-minimisations  :     0
 total energy-change (2. order) : 0.1727722E+03  (-0.9558682E+02)
 number of electron     457.9999281 magnetization 
 augmentation part      156.7875253 magnetization 

 DIPCOR: dipole corrections for dipol
 direction  3 min pos     1,
 dipolmoment           0.000000      0.000000      0.190406 electrons x Angstroem
 Tr[quadrupol]     -6356.189832

 energy correction for charged system         0.000000 eV
 dipol+quadrupol energy correction           -0.002158 eV
 added-field ion interaction         -1.541745 eV  (added to PSCEN)


 Free energy of the ion-electron system (eV)
  ---------------------------------------------------
  alpha Z        PSCENC =       904.51161832
  Ewald energy   TEWEN  =    137143.22463369
  -Hartree energ DENC   =   -177130.93285397
  -exchange      EXHF   =         0.00000000
  -V(xc)+E(xc)   XCENC  =      1890.21060208
  PAW double counting   =     37146.03593595   -40892.22895904
  entropy T*S    EENTRO =        -0.00000000
  eigenvalues    EBANDS =     -7516.79623444
  atomic energy  EATOM  =     48196.57542979
  ---------------------------------------------------
  free energy    TOTEN  =      -259.39982761 eV

  energy without entropy =     -259.39982761  energy(sigma->0) =     -259.39982761


--------------------------------------------------------------------------------------------------------




--------------------------------------- Iteration      1(   7)  ---------------------------------------


    POTLOK:  cpu time      0.0220: real time      0.0220
    SETDIJ:  cpu time      0.1156: real time      0.1156
    TRIAL :  cpu time      0.5170: real time      0.5170
    CORREC:  cpu time      0.3791: real time      0.3791
    CHARGE:  cpu time      0.0420: real time      0.0420
    --------------------------------------------
      LOOP:  cpu time      1.0799: real time      1.0881

 eigenvalue-minimisations  :     0
 total energy-change (2. order) :-0.9595650E+02  (-0.6724538E+01)
 number of electron     457.9999272 magnetization 
 augmentation part      154.9281690 magnetization 

 DIPCOR: dipole corrections for dipol
 direction  3 min pos     1,
 dipolmoment           0.000000      0.000000      0.164723 electrons x Angstroem
 Tr[quadrupol]     -6361.167540

 energy correction for charged system         0.000000 eV
 dipol+quadrupol energy correction           -0.001615 eV
 added-field ion interaction         -1.333791 eV  (added to PSCEN)


 Free energy of the ion-electron system (eV)
  ---------------------------------------------------
  alpha Z        PSCENC =       906.20444534
  Ewald energy   TEWEN  =    137143.22463369
  -Hartree energ DENC   =   -175291.07523444
  -exchange      EXHF   =         0.00000000
  -V(xc)+E(xc)   XCENC  =      1823.48946422
  PAW double counting   =     36036.23302725   -39851.95000404
  entropy T*S    EENTRO =        -0.00000000
  eigenvalues    EBANDS =     -9318.05809309
  atomic energy  EATOM  =     48196.57542979
  ---------------------------------------------------
  free energy    TOTEN  =      -355.35633126 eV

  energy without entropy =     -355.35633126  energy(sigma->0) =     -355.35633126


--------------------------------------------------------------------------------------------------------




--------------------------------------- Iteration      1(   8)  ---------------------------------------


    POTLOK:  cpu time      0.0221: real time      0.0221
    SETDIJ:  cpu time      0.1155: real time      0.1155
    TRIAL :  cpu time      0.5193: real time      0.5193
    CORREC:  cpu time      0.3803: real time      0.3809
    CHARGE:  cpu time      0.0414: real time      0.0414
    --------------------------------------------
      LOOP:  cpu time      1.0910: real time      1.0921

 eigenvalue-minimisations  :     0
 total energy-change (2. order) :-0.6739299E+01  (-0.4174124E+01)
 number of electron     457.9999255 magnetization 
 augmentation part      155.0354360 magnetization 

 DIPCOR: dipole corrections for dipol
 direction  3 min pos     1,
 dipolmoment           0.000000      0.000000      0.111798 electrons x Angstroem
 Tr[quadrupol]     -6359.398347

 energy correction for charged system         0.000000 eV
 dipol+quadrupol energy correction           -0.000744 eV
 added-field ion interaction         -0.905244 eV  (added to PSCEN)


 Free energy of the ion-electron system (eV)
  ---------------------------------------------------
  alpha Z        PSCENC =       906.77077199
  Ewald energy   TEWEN  =    137143.22463369
  -Hartree energ DENC   =   -175182.20637882
  -exchange      EXHF   =         0.00000000
  -V(xc)+E(xc)   XCENC  =      1814.08444453
  PAW double counting   =     35923.06421626   -39669.27185123
  entropy T*S    EENTRO =        -0.00000000
  eigenvalues    EBANDS =     -9494.33689631
  atomic energy  EATOM  =     48196.57542979
  ---------------------------------------------------
  free energy    TOTEN  =      -362.09563011 eV

  energy without entropy =     -362.09563011  energy(sigma->0) =     -362.09563011


--------------------------------------------------------------------------------------------------------




--------------------------------------- Iteration      1(   9)  ---------------------------------------


    POTLOK:  cpu time      0.0218: real time      0.0218
    SETDIJ:  cpu time      0.1161: real time      0.1161
    TRIAL :  cpu time      0.5172: real time      0.5172
    CORREC:  cpu time      0.3799: real time      0.3800
    CHARGE:  cpu time      0.0413: real time      0.0413
    --------------------------------------------
      LOOP:  cpu time      1.0812: real time      1.0890

 eigenvalue-minimisations  :     0
 total energy-change (2. order) :-0.4093743E+01  (-0.1703379E+01)
 number of electron     457.9999255 magnetization 
 augmentation part      155.0561871 magnetization 

 DIPCOR: dipole corrections for dipol
 direction  3 min pos     1,
 dipolmoment           0.000000      0.000000      0.148175 electrons x Angstroem
 Tr[quadrupol]     -6352.183735

 energy correction for charged system         0.000000 eV
 dipol+quadrupol energy correction           -0.001307 eV
 added-field ion interaction         -1.199797 eV  (added to PSCEN)


 Free energy of the ion-electron system (eV)
  ---------------------------------------------------
  alpha Z        PSCENC =       907.17454974
  Ewald energy   TEWEN  =    137143.22463369
  -Hartree energ DENC   =   -175050.67314594
  -exchange      EXHF   =         0.00000000
  -V(xc)+E(xc)   XCENC  =      1813.54492565
  PAW double counting   =     35837.06714784   -39618.32673695
  entropy T*S    EENTRO =        -0.00000000
  eigenvalues    EBANDS =     -9594.77617686
  atomic energy  EATOM  =     48196.57542979
  ---------------------------------------------------
  free energy    TOTEN  =      -366.18937304 eV

  energy without entropy =     -366.18937304  energy(sigma->0) =     -366.18937304


--------------------------------------------------------------------------------------------------------




--------------------------------------- Iteration      1(  10)  ---------------------------------------


    POTLOK:  cpu time      0.0219: real time      0.0219
    SETDIJ:  cpu time      0.1157: real time      0.1157
    TRIAL :  cpu time      0.5201: real time      0.5202
    CORREC:  cpu time      0.3800: real time      0.3801
    CHARGE:  cpu time      0.0410: real time      0.0410
    --------------------------------------------
      LOOP:  cpu time      1.0836: real time      1.0915

 eigenvalue-minimisations  :     0
 total energy-change (2. order) :-0.1716692E+01  (-0.5860295E+00)
 number of electron     457.9999261 magnetization 
 augmentation part      155.0163522 magnetization 

 DIPCOR: dipole corrections for dipol
 direction  3 min pos     1,
 dipolmoment           0.000000      0.000000      0.172068 electrons x Angstroem
 Tr[quadrupol]     -6350.890268

 energy correction for charged system         0.000000 eV
 dipol+quadrupol energy correction           -0.001763 eV
 added-field ion interaction         -1.393266 eV  (added to PSCEN)


 Free energy of the ion-electron system (eV)
  ---------------------------------------------------
  alpha Z        PSCENC =       906.82490918
  Ewald energy   TEWEN  =    137143.22463369
  -Hartree energ DENC   =   -174870.97807519
  -exchange      EXHF   =         0.00000000
  -V(xc)+E(xc)   XCENC  =      1811.86001761
  PAW double counting   =     35723.50183468   -39513.05471148
  entropy T*S    EENTRO =        -0.00000000
  eigenvalues    EBANDS =     -9765.86010346
  atomic energy  EATOM  =     48196.57542979
  ---------------------------------------------------
  free energy    TOTEN  =      -367.90606519 eV

  energy without entropy =     -367.90606519  energy(sigma->0) =     -367.90606519


--------------------------------------------------------------------------------------------------------




--------------------------------------- Iteration      1(  11)  ---------------------------------------


    POTLOK:  cpu time      0.0217: real time      0.0217
    SETDIJ:  cpu time      0.1161: real time      0.1161
    TRIAL :  cpu time      0.5176: real time      0.5176
    CORREC:  cpu time      0.3812: real time      0.3812
    CHARGE:  cpu time      0.0411: real time      0.0411
    --------------------------------------------
      LOOP:  cpu time      1.0831: real time      1.0901

 eigenvalue-minimisations  :     0
 total energy-change (2. order) :-0.5873364E+00  (-0.2124691E+00)
 number of electron     457.9999265 magnetization 
 augmentation part      155.1084140 magnetization 

 DIPCOR: dipole corrections for dipol
 direction  3 min pos     1,
 dipolmoment           0.000000      0.000000      0.153345 electrons x Angstroem
 Tr[quadrupol]     -6351.713788

 energy correction for charged system         0.000000 eV
 dipol+quadrupol energy correction           -0.001400 eV
 added-field ion interaction         -1.241663 eV  (added to PSCEN)


 Free energy of the ion-electron system (eV)
  ---------------------------------------------------
  alpha Z        PSCENC =       906.60398985
  Ewald energy   TEWEN  =    137143.22463369
  -Hartree energ DENC   =   -174804.10829285
  -exchange      EXHF   =         0.00000000
  -V(xc)+E(xc)   XCENC  =      1810.85007214
  PAW double counting   =     35662.45697079   -39444.18001658
  entropy T*S    EENTRO =        -0.00000000
  eigenvalues    EBANDS =     -9839.91618843
  atomic energy  EATOM  =     48196.57542979
  ---------------------------------------------------
  free energy    TOTEN  =      -368.49340159 eV

  energy without entropy =     -368.49340159  energy(sigma->0) =     -368.49340159


--------------------------------------------------------------------------------------------------------




--------------------------------------- Iteration      1(  12)  ---------------------------------------


    POTLOK:  cpu time      0.0218: real time      0.0218
    SETDIJ:  cpu time      0.1161: real time      0.1161
    TRIAL :  cpu time      0.5181: real time      0.5182
    CORREC:  cpu time      0.3789: real time      0.3789
    CHARGE:  cpu time      0.0412: real time      0.0412
    --------------------------------------------
      LOOP:  cpu time      1.0808: real time      1.0893

 eigenvalue-minimisations  :     0
 total energy-change (2. order) :-0.2124607E+00  (-0.7328892E-01)
 number of electron     457.9999267 magnetization 
 augmentation part      155.2104965 magnetization 

 DIPCOR: dipole corrections for dipol
 direction  3 min pos     1,
 dipolmoment           0.000000      0.000000      0.139188 electrons x Angstroem
 Tr[quadrupol]     -6352.439305

 energy correction for charged system         0.000000 eV
 dipol+quadrupol energy correction           -0.001153 eV
 added-field ion interaction         -1.127029 eV  (added to PSCEN)


 Free energy of the ion-electron system (eV)
  ---------------------------------------------------
  alpha Z        PSCENC =       906.71934127
  Ewald energy   TEWEN  =    137143.22463369
  -Hartree energ DENC   =   -174828.25591081
  -exchange      EXHF   =         0.00000000
  -V(xc)+E(xc)   XCENC  =      1811.09111400
  PAW double counting   =     35649.03540446   -39428.91012673
  entropy T*S    EENTRO =        -0.00000000
  eigenvalues    EBANDS =     -9818.18574792
  atomic energy  EATOM  =     48196.57542979
  ---------------------------------------------------
  free energy    TOTEN  =      -368.70586226 eV

  energy without entropy =     -368.70586226  energy(sigma->0) =     -368.70586226


--------------------------------------------------------------------------------------------------------




--------------------------------------- Iteration      1(  13)  ---------------------------------------


    POTLOK:  cpu time      0.0217: real time      0.0217
    SETDIJ:  cpu time      0.1160: real time      0.1161
    TRIAL :  cpu time      0.5178: real time      0.5179
    CORREC:  cpu time      0.3788: real time      0.3788
    CHARGE:  cpu time      0.0412: real time      0.0412
    --------------------------------------------
      LOOP:  cpu time      1.0800: real time      1.0882

 eigenvalue-minimisations  :     0
 total energy-change (2. order) :-0.7331315E-01  (-0.3211629E-01)
 number of electron     457.9999266 magnetization 
 augmentation part      155.2447690 magnetization 

 DIPCOR: dipole corrections for dipol
 direction  3 min pos     1,
 dipolmoment           0.000000      0.000000      0.134291 electrons x Angstroem
 Tr[quadrupol]     -6352.857468

 energy correction for charged system         0.000000 eV
 dipol+quadrupol energy correction           -0.001074 eV
 added-field ion interaction         -1.087374 eV  (added to PSCEN)


 Free energy of the ion-electron system (eV)
  ---------------------------------------------------
  alpha Z        PSCENC =       906.84096892
  Ewald energy   TEWEN  =    137143.22463369
  -Hartree energ DENC   =   -174858.05860201
  -exchange      EXHF   =         0.00000000
  -V(xc)+E(xc)   XCENC  =      1811.39156830
  PAW double counting   =     35648.92947104   -39431.68299421
  entropy T*S    EENTRO =        -0.00000000
  eigenvalues    EBANDS =     -9785.99965092
  atomic energy  EATOM  =     48196.57542979
  ---------------------------------------------------
  free energy    TOTEN  =      -368.77917540 eV

  energy without entropy =     -368.77917540  energy(sigma->0) =     -368.77917540


--------------------------------------------------------------------------------------------------------




--------------------------------------- Iteration      1(  14)  ---------------------------------------


    POTLOK:  cpu time      0.0219: real time      0.0219
    SETDIJ:  cpu time      0.1160: real time      0.1160
    TRIAL :  cpu time      0.5169: real time      0.5169
    CORREC:  cpu time      0.3796: real time      0.3796
    CHARGE:  cpu time      0.0414: real time      0.0414
    --------------------------------------------
      LOOP:  cpu time      1.0815: real time      1.0883

 eigenvalue-minimisations  :     0
 total energy-change (2. order) :-0.3214786E-01  (-0.1503735E-01)
 number of electron     457.9999266 magnetization 
 augmentation part      155.2296358 magnetization 

 DIPCOR: dipole corrections for dipol
 direction  3 min pos     1,
 dipolmoment           0.000000      0.000000      0.133224 electrons x Angstroem
 Tr[quadrupol]     -6353.177761

 energy correction for charged system         0.000000 eV
 dipol+quadrupol energy correction           -0.001057 eV
 added-field ion interaction         -1.078733 eV  (added to PSCEN)


 Free energy of the ion-electron system (eV)
  ---------------------------------------------------
  alpha Z        PSCENC =       906.88094353
  Ewald energy   TEWEN  =    137143.22463369
  -Hartree energ DENC   =   -174871.29910420
  -exchange      EXHF   =         0.00000000
  -V(xc)+E(xc)   XCENC  =      1811.40051654
  PAW double counting   =     35649.36901763   -39433.70058038
  entropy T*S    EENTRO =        -0.00000000
  eigenvalues    EBANDS =     -9771.26217987
  atomic energy  EATOM  =     48196.57542979
  ---------------------------------------------------
  free energy    TOTEN  =      -368.81132327 eV

[...]
    273       7.6060      0.00000
    274       7.6061      0.00000
    275       7.7037      0.00000
    276       7.9683      0.00000
    277       8.0028      0.00000
    278       8.0029      0.00000
    279       8.0150      0.00000
    280       8.1651      0.00000
    281       8.1652      0.00000
    282       8.1721      0.00000
    283       8.1729      0.00000
    284       8.1856      0.00000
    285       8.1890      0.00000
    286       8.1951      0.00000
    287       8.1952      0.00000
    288       8.4623      0.00000
    289       8.4627      0.00000
    290       8.4630      0.00000
    291       8.6504      0.00000
    292       8.7065      0.00000
    293       8.7074      0.00000
    294       8.7082      0.00000
    295       8.7160      0.00000
    296       8.7662      0.00000
    297       8.7710      0.00000
    298       8.7792      0.00000
    299       8.7803      0.00000
    300       9.0056      0.00000
    301       9.0544      0.00000
    302       9.0993      0.00000
    303       9.1296      0.00000
    304       9.2713      0.00000
    305       9.4998      0.00000
    306       9.5315      0.00000
    307       9.5771      0.00000
    308       9.6566      0.00000
    309       9.6978      0.00000
    310       9.7080      0.00000
    311       9.7271      0.00000
    312       9.9428      0.00000
    313      10.0222      0.00000
    314      10.0371      0.00000
    315      10.0523      0.00000
    316      10.0764      0.00000
    317      10.4819      0.00000
    318      10.5133      0.00000
    319      10.5971      0.00000
    320      10.6000      0.00000


--------------------------------------------------------------------------------------------------------


 soft charge-density along one line, spin component           1
         0         1         2         3         4         5         6         7         8         9
 total charge-density along one line

 pseudopotential strength for first ion, spin component:           1
 10.253  13.636   0.000   0.037   0.000  -0.000  -0.106  -0.000
 13.636  18.135   0.000   0.049   0.000  -0.000  -0.140  -0.000
  0.000   0.000  -4.279  -0.000   0.000   8.366   0.000  -0.000
  0.037   0.049  -0.000  -4.337  -0.000   0.000   8.462   0.000
  0.000   0.000   0.000  -0.000  -4.279  -0.000   0.000   8.366
 -0.000  -0.000   8.366   0.000  -0.000 -18.488  -0.000   0.000
 -0.106  -0.140   0.000   8.462   0.000  -0.000 -18.645  -0.000
 -0.000  -0.000  -0.000   0.000   8.366   0.000  -0.000 -18.488
 total augmentation occupancy for first ion, spin component:           1
  7.811  -3.567   0.000   2.018  -0.000   0.000   0.380   0.000
 -3.567   1.990   0.000  -1.546   0.000   0.000  -0.233   0.000
  0.000   0.000   0.845   0.000   0.000   0.063   0.000   0.000
  2.018  -1.546   0.000   2.244   0.000   0.000   0.217   0.000
 -0.000   0.000   0.000   0.000   0.845  -0.000  -0.000   0.063
  0.000   0.000   0.063   0.000  -0.000   0.005   0.000   0.000
  0.380  -0.233   0.000   0.217  -0.000   0.000   0.030   0.000
  0.000   0.000   0.000   0.000   0.063   0.000   0.000   0.005


------------------------ aborting loop because EDIFF is reached ----------------------------------------


    FORLOC:  cpu time      0.0026: real time      0.0026
    FORNL :  cpu time      0.2937: real time      0.2939
    STRESS:  cpu time      1.0164: real time      1.0166
    FORCOR:  cpu time      0.0200: real time      0.0200
    OFIELD:  cpu time      0.0001: real time      0.0001
    FORVDW:  cpu time      4.8956: real time      4.9142

  FORCE on cell =-STRESS in cart. coord.  units (eV):
  Direction    XX          YY          ZZ          XY          YZ          ZX
  --------------------------------------------------------------------------------------
  Alpha Z   907.96410   907.96410   907.96410
  Ewald  157644.15472157644.15472************     0.00000     0.00000    -0.00000
  Hartree168067.77716168067.77716************    -0.00000    -0.00000    -0.00000
  E(xc)   -2509.92061 -2509.92061 -2516.38988    -0.00000     0.00000     0.00000
  Local  ************************335292.98436    -0.00000    -0.00000    -0.00000
  n-local -2812.92353 -2813.69657 -2844.44877    -0.00000     0.00000    -0.00000
  augment  1052.74885  1052.74885  1042.62339    -0.00000     0.00000    -0.00000
  Kinetic  7500.95437  7503.43940  7523.18657     0.00001    -0.00001     0.00001
  Fock        0.00000     0.00000     0.00000     0.00000     0.00000     0.00000
  vdW       -21.67641   -21.67643   -16.56908     0.00000     0.00000    -0.00000
  -------------------------------------------------------------------------------------
  Total     -25.99271   -25.99271    -1.68364     0.00000     0.00000    -0.00000
  in kB     -27.40123   -27.40123    -1.77488     0.00000     0.00000    -0.00000
  external pressure =      -18.86 kB  Pullay stress =        0.00 kB


 VOLUME and BASIS-vectors are now :
 -----------------------------------------------------------------------------
  energy-cutoff  :      600.00
  volume of cell :     1519.82
      direct lattice vectors                 reciprocal lattice vectors
     8.440984654  0.000000000  0.000000000     0.118469591  0.000000000  0.000000000
     0.000000000  8.440984654  0.000000000     0.000000000  0.118469591  0.000000000
     0.000000000  0.000000000 21.330738491     0.000000000  0.000000000  0.046880702

  length of vectors
     8.440984654  8.440984654 21.330738491     0.118469591  0.118469591  0.046880702


 FORCES acting on ions:
    Electron-Ion                     Ewald-Force                    Non-Local-Force
 -----------------------------------------------------------------------------------------------
   0.119E-12 0.156E-11 -.837E+03   0.144E-13 0.533E-14 0.811E+03   -.106E-21 0.000E+00 0.266E+02
   0.466E-12 0.183E-11 -.145E+04   -.422E-14 -.511E-14 0.151E+04   0.132E-22 0.000E+00 -.596E+02
   -.592E-13 -.128E+00 0.208E+04   0.560E-13 0.129E+00 -.207E+04   -.265E-22 -.206E-03 -.716E+01
   0.128E+00 0.875E-13 0.208E+04   -.129E+00 0.671E-13 -.207E+04   0.206E-03 0.000E+00 -.716E+01
   -.539E-13 -.330E-12 0.713E+03   -.150E-10 0.150E-10 -.714E+03   0.000E+00 0.000E+00 0.501E+00
   0.472E+00 -.472E+00 0.714E+03   -.467E+00 0.467E+00 -.715E+03   -.265E-02 0.265E-02 0.529E+00
   -.434E-13 -.284E+01 -.643E+03   0.157E-11 0.283E+01 0.643E+03   0.000E+00 0.139E-01 -.158E+00
   0.284E+01 -.640E-13 -.643E+03   -.283E+01 -.151E-11 0.643E+03   -.139E-01 -.106E-21 -.158E+00
   -.309E-13 0.650E-12 -.200E+04   0.444E-12 -.416E-12 0.200E+04   -.331E-23 0.000E+00 0.608E+01
   0.180E+02 -.180E+02 -.198E+04   -.182E+02 0.182E+02 0.198E+04   0.958E-01 -.958E-01 0.618E+01
   -.440E-13 0.128E+00 0.208E+04   -.277E-12 -.129E+00 -.207E+04   -.106E-21 0.206E-03 -.716E+01
   0.124E+00 0.741E-12 0.208E+04   -.121E+00 0.131E-10 -.207E+04   -.167E-02 0.662E-23 -.716E+01
   -.590E-13 0.633E-12 0.714E+03   -.165E-10 0.000E+00 -.715E+03   0.000E+00 -.794E-22 0.466E+00
   0.472E+00 0.472E+00 0.714E+03   -.467E+00 -.467E+00 -.715E+03   -.265E-02 -.265E-02 0.529E+00
   -.360E-13 0.284E+01 -.643E+03   0.304E-11 -.283E+01 0.643E+03   0.596E-22 -.139E-01 -.158E+00
   0.413E+01 0.152E-11 -.636E+03   -.405E+01 0.178E-14 0.636E+03   -.792E-01 0.265E-21 -.259E+00
   -.273E-13 0.114E-11 -.199E+04   -.355E-13 -.995E-13 0.198E+04   -.529E-22 0.000E+00 0.609E+01
   0.180E+02 0.180E+02 -.198E+04   -.182E+02 -.182E+02 0.198E+04   0.958E-01 0.958E-01 0.618E+01
   0.900E-12 -.124E+00 0.208E+04   -.129E-10 0.121E+00 -.207E+04   0.000E+00 0.167E-02 -.716E+01
   -.128E+00 0.101E-12 0.208E+04   0.129E+00 0.471E-13 -.207E+04   -.206E-03 0.159E-21 -.716E+01
   0.802E-12 0.168E-12 0.714E+03   0.145E-11 0.150E-10 -.715E+03   -.529E-22 0.529E-22 0.466E+00
   -.472E+00 -.472E+00 0.714E+03   0.467E+00 0.467E+00 -.715E+03   0.265E-02 0.265E-02 0.529E+00
   0.832E-12 -.413E+01 -.636E+03   -.141E-11 0.405E+01 0.636E+03   0.000E+00 0.792E-01 -.259E+00
   -.284E+01 -.138E-12 -.643E+03   0.283E+01 -.156E-11 0.643E+03   0.139E-01 0.000E+00 -.158E+00
   0.920E-12 0.478E-12 -.199E+04   0.782E-13 -.355E-14 0.198E+04   -.165E-23 0.000E+00 0.609E+01
   -.180E+02 -.180E+02 -.198E+04   0.182E+02 0.182E+02 0.198E+04   -.958E-01 -.958E-01 0.618E+01
   0.892E-12 0.124E+00 0.208E+04   -.131E-10 -.121E+00 -.207E+04   0.000E+00 -.167E-02 -.716E+01
   -.124E+00 0.236E-12 0.208E+04   0.121E+00 0.131E-10 -.207E+04   0.167E-02 0.331E-23 -.716E+01
   0.846E-12 0.164E-11 0.714E+03   -.782E-13 0.355E-14 -.715E+03   0.529E-22 -.106E-21 0.599E+00
   -.472E+00 0.472E+00 0.714E+03   0.467E+00 -.467E+00 -.715E+03   0.265E-02 -.265E-02 0.529E+00
   0.832E-12 0.413E+01 -.636E+03   -.284E-13 -.405E+01 0.636E+03   0.529E-22 -.792E-01 -.259E+00
   -.413E+01 -.123E-11 -.636E+03   0.405E+01 0.000E+00 0.636E+03   0.792E-01 0.132E-21 -.259E+00
   0.916E-12 -.919E-12 -.191E+04   -.426E-13 -.391E-13 0.191E+04   0.529E-22 0.000E+00 0.399E+01
   -.180E+02 0.180E+02 -.198E+04   0.182E+02 -.182E+02 0.198E+04   -.958E-01 0.958E-01 0.618E+01
   -.774E-13 -.404E+00 0.535E+03   0.409E-13 0.400E+00 -.535E+03   0.000E+00 0.668E-02 -.910E-01
   0.404E+00 -.254E-12 0.535E+03   -.400E+00 0.391E-13 -.535E+03   -.668E-02 -.529E-22 -.910E-01
   -.611E-13 0.215E-12 0.156E+04   0.853E-11 -.844E-11 -.156E+04   0.529E-22 0.000E+00 0.341E+01
   0.939E-01 -.939E-01 0.156E+04   -.931E-01 0.931E-01 -.156E+04   -.106E-02 0.106E-02 0.341E+01
   -.482E-13 -.733E+01 -.152E+04   -.871E-12 0.727E+01 0.153E+04   0.463E-22 0.528E-01 -.496E+01
   0.733E+01 0.404E-12 -.152E+04   -.727E+01 0.881E-12 0.153E+04   -.528E-01 0.000E+00 -.496E+01
   -.693E-13 -.192E-12 -.478E+03   -.853E-13 0.639E-13 0.478E+03   0.000E+00 -.662E-23 0.256E+00
   0.257E+01 -.257E+01 -.473E+03   -.256E+01 0.256E+01 0.473E+03   -.599E-02 0.599E-02 0.326E+00
   -.639E-13 0.404E+00 0.535E+03   0.142E-13 -.400E+00 -.535E+03   0.000E+00 -.668E-02 -.910E-01
   0.380E+00 0.253E-12 0.535E+03   -.406E+00 -.764E-11 -.535E+03   0.348E-01 0.529E-22 -.111E+00
   -.554E-13 0.741E-12 0.156E+04   0.845E-11 -.796E-12 -.156E+04   0.212E-21 -.106E-21 0.341E+01
   0.939E-01 0.939E-01 0.156E+04   -.931E-01 -.931E-01 -.156E+04   -.106E-02 -.106E-02 0.341E+01
   -.580E-13 0.733E+01 -.152E+04   -.774E-12 -.727E+01 0.153E+04   0.106E-21 -.528E-01 -.496E+01
   0.236E+02 0.438E-12 -.149E+04   -.233E+02 0.810E-11 0.150E+04   -.342E+00 0.000E+00 -.497E+01
   -.588E-13 0.136E-11 -.473E+03   -.741E-11 0.711E-14 0.473E+03   0.000E+00 0.000E+00 0.280E+00
   0.257E+01 0.257E+01 -.473E+03   -.256E+01 -.256E+01 0.473E+03   -.599E-02 -.599E-02 0.326E+00
   0.320E-12 -.380E+00 0.535E+03   0.764E-11 0.406E+00 -.535E+03   -.529E-22 -.348E-01 -.111E+00
   -.404E+00 -.241E-12 0.535E+03   0.400E+00 0.142E-13 -.535E+03   0.668E-02 -.281E-22 -.910E-01
   0.344E-12 -.519E-12 0.156E+04   0.845E-12 -.846E-11 -.156E+04   0.000E+00 0.318E-21 0.341E+01
   -.939E-01 -.939E-01 0.156E+04   0.931E-01 0.931E-01 -.156E+04   0.106E-02 0.106E-02 0.341E+01
   0.387E-12 -.236E+02 -.149E+04   -.816E-11 0.233E+02 0.150E+04   0.529E-22 0.342E+00 -.497E+01
   -.733E+01 0.444E-12 -.152E+04   0.727E+01 0.924E-12 0.153E+04   0.528E-01 0.000E+00 -.496E+01
   0.316E-12 0.310E-12 -.473E+03   -.711E-14 0.738E-11 0.473E+03   0.265E-22 0.000E+00 0.280E+00
   -.257E+01 -.257E+01 -.473E+03   0.256E+01 0.256E+01 0.473E+03   0.599E-02 0.599E-02 0.326E+00
   0.312E-12 0.380E+00 0.535E+03   0.763E-11 -.406E+00 -.535E+03   0.000E+00 0.348E-01 -.111E+00
   -.380E+00 0.117E-11 0.535E+03   0.406E+00 -.769E-11 -.535E+03   -.348E-01 0.529E-22 -.111E+00
   0.330E-12 0.673E-12 0.156E+04   0.824E-12 -.838E-12 -.156E+04   0.529E-22 0.000E+00 0.340E+01
   -.939E-01 0.939E-01 0.156E+04   0.931E-01 -.931E-01 -.156E+04   0.106E-02 -.106E-02 0.341E+01
   0.387E-12 0.236E+02 -.149E+04   -.820E-11 -.233E+02 0.150E+04   -.529E-22 -.342E+00 -.497E+01
   -.236E+02 -.215E-11 -.149E+04   0.233E+02 0.819E-11 0.150E+04   0.342E+00 -.106E-21 -.497E+01
   0.302E-12 0.983E-12 -.473E+03   -.497E-13 0.426E-13 0.473E+03   0.000E+00 0.000E+00 -.199E+00
   -.257E+01 0.257E+01 -.473E+03   0.256E+01 -.256E+01 0.473E+03   0.599E-02 -.599E-02 0.326E+00
 -----------------------------------------------------------------------------------------------
   0.263E-10 0.237E-10 0.521E+02   0.153E-12 -.999E-13 0.387E-11   -.101E-15 -.173E-17 -.522E+02


 POSITION                                       TOTAL-FORCE (eV/Angst)
 -----------------------------------------------------------------------------------
      4.22049      4.22049     16.31916         0.000000     -0.000000      0.009462
      4.22049      4.22049     17.46598         0.000000     -0.000000      0.006095
      0.00000      6.33074      7.50000         0.000000      0.000033      0.335408
      2.11025      0.00000      7.50000        -0.000033     -0.000000      0.335408
      0.00000      0.00000      9.61025         0.000000     -0.000000      0.070406
      2.11025      6.33074      9.61025         0.001575     -0.001575      0.072377
      0.00000      6.33023     11.73368         0.000000      0.000428     -0.002214
      2.11076      0.00000     11.73368        -0.000428     -0.000000     -0.002214
      0.00000      0.00000     13.83822         0.000000     -0.000000      0.003437
      2.10905      6.33193     13.83447        -0.000938      0.000938      0.004812
      0.00000      2.11025      7.50000         0.000000     -0.000033      0.335408
      2.11025      4.22049      7.50000         0.000644     -0.000000      0.335505
      0.00000      4.22049      9.61025         0.000000     -0.000000      0.078828
      2.11025      2.11025      9.61025         0.001575      0.001575      0.072377
      0.00000      2.11076     11.73368         0.000000     -0.000428     -0.002214
      2.11344      4.22049     11.73659        -0.003020     -0.000000      0.002938
      0.00000      4.22049     13.83544         0.000000     -0.000000      0.003177
      2.10905      2.10905     13.83447        -0.000938     -0.000938      0.004812
      4.22049      6.33074      7.50000         0.000000     -0.000644      0.335505
      6.33074      0.00000      7.50000         0.000033     -0.000000      0.335408
      4.22049      0.00000      9.61025         0.000000     -0.000000      0.078828
      6.33074      6.33074      9.61025        -0.001575     -0.001575      0.072377
      4.22049      6.32754     11.73659         0.000000      0.003020      0.002938
      6.33023      0.00000     11.73368         0.000428     -0.000000     -0.002214
      4.22049      0.00000     13.83544         0.000000     -0.000000      0.003177
      6.33193      6.33193     13.83447         0.000938      0.000938      0.004812
      4.22049      2.11025      7.50000         0.000000      0.000644      0.335505
      6.33074      4.22049      7.50000        -0.000644     -0.000000      0.335505
      4.22049      4.22049      9.61025         0.000000     -0.000000      0.085033
      6.33074      2.11025      9.61025        -0.001575      0.001575      0.072377
      4.22049      2.11344     11.73659         0.000000     -0.003020      0.002938
      6.32754      4.22049     11.73659         0.003020     -0.000000      0.002938
      4.22049      4.22049     13.87814         0.000000     -0.000000      0.007322
      6.33193      2.10905     13.83447         0.000938     -0.000938      0.004812
      0.00000      6.33074      9.61025         0.000000      0.001985      0.077682
      2.11025      0.00000      9.61025        -0.001985     -0.000000      0.077682
      0.00000      0.00000      7.50000         0.000000     -0.000000     -0.500671
      2.11025      6.33074      7.50000        -0.000304      0.000304     -0.500402
      0.00000      6.33258     13.88587         0.000000     -0.003186     -0.001144
      2.10840      0.00000     13.88587         0.003186     -0.000000     -0.001144
      0.00000      0.00000     11.72785         0.000000     -0.000000      0.005714
      2.10979      6.33120     11.72890         0.003458     -0.003458     -0.000088
      0.00000      2.11025      9.61025         0.000000     -0.001985      0.077682
      2.11025      4.22049      9.61025         0.008904     -0.000000      0.086758
      0.00000      4.22049      7.50000         0.000000     -0.000000     -0.500519
      2.11025      2.11025      7.50000        -0.000304     -0.000304     -0.500402
      0.00000      2.10840     13.88587         0.000000      0.003186     -0.001144
      2.10031      4.22049     13.88381        -0.000276     -0.000000     -0.000338
      0.00000      4.22049     11.72684         0.000000     -0.000000      0.004015
      2.10979      2.10979     11.72890         0.003458      0.003458     -0.000088
      4.22049      6.33074      9.61025         0.000000     -0.008904      0.086758
      6.33074      0.00000      9.61025         0.001985     -0.000000      0.077682
      4.22049      0.00000      7.50000         0.000000     -0.000000     -0.500519
      6.33074      6.33074      7.50000         0.000304      0.000304     -0.500402
      4.22049      6.34068     13.88381         0.000000      0.000276     -0.000338
      6.33258      0.00000     13.88587        -0.003186     -0.000000     -0.001144
      4.22049      0.00000     11.72684         0.000000     -0.000000      0.004015
      6.33120      6.33120     11.72890        -0.003458     -0.003458     -0.000088
      4.22049      2.11025      9.61025         0.000000      0.008904      0.086758
      6.33074      4.22049      9.61025        -0.008904     -0.000000      0.086758
      4.22049      4.22049      7.50000         0.000000     -0.000000     -0.501091
      6.33074      2.11025      7.50000         0.000304     -0.000304     -0.500402
      4.22049      2.10031     13.88381         0.000000     -0.000276     -0.000338
      6.34068      4.22049     13.88381         0.000276     -0.000000     -0.000338
      4.22049      4.22049     11.73684         0.000000     -0.000000     -0.001885
      6.33120      2.10979     11.72890        -0.003458      0.003458     -0.000088
 -----------------------------------------------------------------------------------
    total drift:                                0.000000      0.000000     -0.038550


--------------------------------------------------------------------------------------------------------



  FREE ENERGIE OF THE ION-ELECTRON SYSTEM (eV)
  ---------------------------------------------------
  free  energy   TOTEN  =      -386.05080021 eV

  energy  without entropy=     -386.05080021  energy(sigma->0) =     -386.05080021



--------------------------------------------------------------------------------------------------------


    POTLOK:  cpu time      0.3879: real time      0.3879


--------------------------------------------------------------------------------------------------------


     LOOP+:  cpu time     38.5473: real time     38.7457
    4ORBIT:  cpu time      0.0000: real time      0.0000

 total amount of memory used by VASP MPI-rank0    78528. kBytes
=======================================================================

   base      :      30000. kBytes
   nonl-proj :      29343. kBytes
   fftplans  :       3857. kBytes
   grid      :       5885. kBytes
   one-center:        137. kBytes
   wavefun   :       9306. kBytes

  
  
 General timing and accounting informations for this job:
 ========================================================
  
                  Total CPU time used (sec):       54.104
                            User time (sec):       52.240
                          System time (sec):        1.864
                         Elapsed time (sec):       57.736
  
                   Maximum memory used (kb):      176628.
                   Average memory used (kb):          N/A
  
                          Minor page faults:        31322
                          Major page faults:           53
                 Voluntary context switches:         7096
