 vasp.6.3.0 20Jan22 (build Apr  1 2022 16:44:48) complex                         
 executed on        HPECrayEX_GCC date 2023.05.17  22:54:01
 running  512 mpi-ranks, with    1 threads/rank
 distrk:  each k-point on  512 cores,    1 groups
 distr:  one band on NCORE=   8 cores,   64 groups


--------------------------------------------------------------------------------------------------------


 INCAR:
   SYSTEM = MgO-rocksalt
   ISMEAR = 0
   SIGMA = 0.05
   EDIFF = 1E-6
   ALGO = ALL
   ISTART = 0
   IBRION = -1
   NSW = 0
   ISYM = 2
   ISIF = 2
   EDIFFG = -0.01
   DIPOL = 0.5 0.5 0.5
   IDIPOL = 3
   LDIPOL = .TRUE.
   LHFCALC = .TRUE.
   GGA = B5
   AEXX = 0.2
   AGGAX = 0.72
   AGGAC = 0.81
   ALDAC = 0.19
   IVDW = 1
   VDW_S6 = 1.05
   VDW_C6 = 1.75 0.70 0.63 0.70
   VDW_R0 = 1.452 1.342 1.243 1.342
   ENCUT = 600
   PREC = Normal
   LASPH = .TRUE.
   LREAL = .FALSE.
   ISPIN = 1
   NELM = 200
   NELMIN = 8
   NCORE = 8
   KPAR = 1
   LWAVE = .FALSE.
   LCHARG = .FALSE.

 POTCAR:    PAW_PBE C 08Apr2002                   
 POTCAR:    PAW_PBE O 08Apr2002                   
 POTCAR:    PAW_PBE Mg_pv 13Apr2007               
 POTCAR:    PAW_PBE O 08Apr2002                   
 -----------------------------------------------------------------------------
|                                                                             |
|           W    W    AA    RRRRR   N    N  II  N    N   GGGG   !!!           |
|           W    W   A  A   R    R  NN   N  II  NN   N  G    G  !!!           |
|           W    W  A    A  R    R  N N  N  II  N N  N  G       !!!           |
|           W WW W  AAAAAA  RRRRR   N  N N  II  N  N N  G  GGG   !            |
|           WW  WW  A    A  R   R   N   NN  II  N   NN  G    G                |
|           W    W  A    A  R    R  N    N  II  N    N   GGGG   !!!           |
|                                                                             |
|     You have selected ISYM=2 for a HF type calculation. This will           |
|     symmetrize the charge density but not the exchange potential. I         |
|     suggest to use ISYM=3 instead. This uses symmetry to obtain the         |
|     orbitals at all k-points in the Brillouin zone, but does not apply      |
|     symmetry to the Hartree potential directly. The resultant charge        |
|     might have lower symmetry than the crystal but, at least, Hartree       |
|     and exchange are fully compatible.                                      |
|                                                                             |
 -----------------------------------------------------------------------------

 POTCAR:    PAW_PBE C 08Apr2002                   
   SHA256 =  253f7b50bb8d59471dbedb8285d89021f4a42ed1a2c5d38a03a736e69125dd95 C/POTCAR              
   COPYR  = (c) Copyright 08Apr2002 Georg Kresse                                                    
   COPYR  = This file is part of the software VASP. Any use, copying, and all other rights are regul
   COPYR  = If you do not have a valid VASP license, you may not use, copy or distribute this file. 
   VRHFIN =C: s2p2                                                                                  
   LEXCH  = PE                                                                                      
   EATOM  =   147.1560 eV,   10.8157 Ry                                                             
                                                                                                    
   TITEL  = PAW_PBE C 08Apr2002                                                                     
   LULTRA =        F    use ultrasoft PP ?                                                          
   IUNSCR =        1    unscreen: 0-lin 1-nonlin 2-no                                               
   RPACOR =    1.200    partial core radius                                                         
   POMASS =   12.011; ZVAL   =    4.000    mass and valenz                                          
   RCORE  =    1.500    outmost cutoff radius                                                       
   RWIGS  =    1.630; RWIGS  =    0.863    wigner-seitz radius (au A)                               
   ENMAX  =  400.000; ENMIN  =  300.000 eV                                                          
   ICORE  =        2    local potential                                                             
   LCOR   =        T    correct aug charges                                                         
   LPAW   =        T    paw PP                                                                      
   EAUG   =  644.873                                                                                
   DEXC   =    0.000                                                                                
   RMAX   =    1.529    core radius for proj-oper                                                   
   RAUG   =    1.300    factor for augmentation sphere                                              
   RDEP   =    1.501    radius for radial grids                                                     
   RDEPT  =    1.300    core radius for aug-charge                                                  
                                                                                                    
   Atomic configuration                                                                             
    4 entries                                                                                       
     n  l   j            E        occ.                                                              
     1  0  0.50      -273.3789   2.0000                                                             
     2  0  0.50       -13.7508   2.0000                                                             
     2  1  0.50        -5.2854   2.0000                                                             
     3  2  1.50        -5.4423   0.0000                                                             
   Description                                                                                      
     l       E           TYP  RCUT    TYP  RCUT                                                     
     0    -13.7508458     23  1.200                                                                 
     0     -8.2022199     23  1.200                                                                 
     1     -5.2854383     23  1.500                                                                 
     1     34.0145650     23  1.500                                                                 
     2     -5.4423304      7  1.500                                                                 
  local pseudopotential read in
  partial core-charges read in
  partial kinetic energy density read in
  atomic valenz-charges read in
  non local Contribution for L=           0  read in
    real space projection operators read in
  non local Contribution for L=           0  read in
    real space projection operators read in
  non local Contribution for L=           1  read in
    real space projection operators read in
  non local Contribution for L=           1  read in
    real space projection operators read in
    PAW grid and wavefunctions read in

   number of l-projection  operators is LMAX  =           4
   number of lm-projection operators is LMMAX =           8

 POTCAR:    PAW_PBE O 08Apr2002                   
   SHA256 =  818f92134a0a090dccd8ba1447fa70422a3b330e708bb4f08108d8ae51209ddf O/POTCAR              
   COPYR  = (c) Copyright 08Apr2002 Georg Kresse                                                    
   COPYR  = This file is part of the software VASP. Any use, copying, and all other rights are regul
   COPYR  = If you do not have a valid VASP license, you may not use, copy or distribute this file. 
   VRHFIN =O: s2p4                                                                                  
   LEXCH  = PE                                                                                      
   EATOM  =   432.3788 eV,   31.7789 Ry                                                             
                                                                                                    
   TITEL  = PAW_PBE O 08Apr2002                                                                     
   LULTRA =        F    use ultrasoft PP ?                                                          
   IUNSCR =        1    unscreen: 0-lin 1-nonlin 2-no                                               
   RPACOR =    1.200    partial core radius                                                         
   POMASS =   16.000; ZVAL   =    6.000    mass and valenz                                          
   RCORE  =    1.520    outmost cutoff radius                                                       
   RWIGS  =    1.550; RWIGS  =    0.820    wigner-seitz radius (au A)                               
   ENMAX  =  400.000; ENMIN  =  300.000 eV                                                          
   ICORE  =        2    local potential                                                             
   LCOR   =        T    correct aug charges                                                         
   LPAW   =        T    paw PP                                                                      
   EAUG   =  605.392                                                                                
   DEXC   =    0.000                                                                                
   RMAX   =    1.553    core radius for proj-oper                                                   
   RAUG   =    1.300    factor for augmentation sphere                                              
   RDEP   =    1.550    radius for radial grids                                                     
   RDEPT  =    1.329    core radius for aug-charge                                                  
                                                                                                    
   Atomic configuration                                                                             
    4 entries                                                                                       
     n  l   j            E        occ.                                                              
     1  0  0.50      -514.6923   2.0000                                                             
     2  0  0.50       -23.9615   2.0000                                                             
     2  1  0.50        -9.0305   4.0000                                                             
     3  2  1.50        -9.5241   0.0000                                                             
   Description                                                                                      
     l       E           TYP  RCUT    TYP  RCUT                                                     
     0    -23.9615318     23  1.200                                                                 
     0     -9.5240782     23  1.200                                                                 
     1     -9.0304911     23  1.520                                                                 
     1      8.1634956     23  1.520                                                                 
     2     -9.5240782      7  1.500                                                                 
  local pseudopotential read in
  partial core-charges read in
  partial kinetic energy density read in
  kinetic energy density of atom read in
  atomic valenz-charges read in
  non local Contribution for L=           0  read in
    real space projection operators read in
  non local Contribution for L=           0  read in
    real space projection operators read in
  non local Contribution for L=           1  read in
    real space projection operators read in
  non local Contribution for L=           1  read in
    real space projection operators read in
    PAW grid and wavefunctions read in

   number of l-projection  operators is LMAX  =           4
   number of lm-projection operators is LMMAX =           8

 POTCAR:    PAW_PBE Mg_pv 13Apr2007               
   SHA256 =  f474ac0dd33840b9ae76c01d57fea79fdf77cdfbb07d5ade72c65f83c709b62b Mg_pv/POTCAR          
   COPYR  = (c) Copyright 13Apr2007 Georg Kresse                                                    
   COPYR  = This file is part of the software VASP. Any use, copying, and all other rights are regul
   COPYR  = If you do not have a valid VASP license, you may not use, copy or distribute this file. 
   VRHFIN =Mg: p6s2                                                                                 
   LEXCH  = PE                                                                                      
   EATOM  =  1056.7344 eV,   77.6678 Ry                                                             
                                                                                                    
   TITEL  = PAW_PBE Mg_pv 13Apr2007                                                                 
   LULTRA =        F    use ultrasoft PP ?                                                          
   IUNSCR =        1    unscreen: 0-lin 1-nonlin 2-no                                               
   RPACOR =    1.500    partial core radius                                                         
   POMASS =   24.305; ZVAL   =    8.000    mass and valenz                                          
   RCORE  =    2.000    outmost cutoff radius                                                       
   RWIGS  =    2.000; RWIGS  =    1.058    wigner-seitz radius (au A)                               
   ENMAX  =  403.929; ENMIN  =  302.947 eV                                                          
   RCLOC  =    1.506    cutoff for local pot                                                        
   LCOR   =        T    correct aug charges                                                         
   LPAW   =        T    paw PP                                                                      
   EAUG   =  758.780                                                                                
   DEXC   =    0.000                                                                                
   RMAX   =    2.045    core radius for proj-oper                                                   
   RAUG   =    1.300    factor for augmentation sphere                                              
   RDEP   =    2.025    radius for radial grids                                                     
   RDEPT  =    1.557    core radius for aug-charge                                                  
                                                                                                    
   Atomic configuration                                                                             
    5 entries                                                                                       
     n  l   j            E        occ.                                                              
     1  0  0.50     -1259.6230   2.0000                                                             
     2  0  0.50       -79.8442   2.0000                                                             
     2  1  1.50       -46.6121   6.0000                                                             
     3  0  0.50        -4.7055   2.0000                                                             
     3  2  1.50        -1.3606   0.0000                                                             
   Description                                                                                      
     l       E           TYP  RCUT    TYP  RCUT                                                     
     1    -46.6121073     23  1.600                                                                 
     1      2.7211652     23  1.600                                                                 
     0     -4.7054661     23  2.000                                                                 
     0     61.2262170     23  2.000                                                                 
     2     -1.3605826     23  2.000                                                                 
  local pseudopotential read in
  partial core-charges read in
  partial kinetic energy density read in
  atomic valenz-charges read in
  non local Contribution for L=           1  read in
    real space projection operators read in
  non local Contribution for L=           1  read in
    real space projection operators read in
  non local Contribution for L=           0  read in
    real space projection operators read in
  non local Contribution for L=           0  read in
    real space projection operators read in
  non local Contribution for L=           2  read in
    real space projection operators read in
    PAW grid and wavefunctions read in

   number of l-projection  operators is LMAX  =           5
   number of lm-projection operators is LMMAX =          13

 POTCAR:    PAW_PBE O 08Apr2002                   
   SHA256 =  818f92134a0a090dccd8ba1447fa70422a3b330e708bb4f08108d8ae51209ddf O/POTCAR              
   COPYR  = (c) Copyright 08Apr2002 Georg Kresse                                                    
   COPYR  = This file is part of the software VASP. Any use, copying, and all other rights are regul
   COPYR  = If you do not have a valid VASP license, you may not use, copy or distribute this file. 
   VRHFIN =O: s2p4                                                                                  
   LEXCH  = PE                                                                                      
   EATOM  =   432.3788 eV,   31.7789 Ry                                                             
                                                                                                    
   TITEL  = PAW_PBE O 08Apr2002                                                                     
   LULTRA =        F    use ultrasoft PP ?                                                          
   IUNSCR =        1    unscreen: 0-lin 1-nonlin 2-no                                               
   RPACOR =    1.200    partial core radius                                                         
   POMASS =   16.000; ZVAL   =    6.000    mass and valenz                                          
   RCORE  =    1.520    outmost cutoff radius                                                       
   RWIGS  =    1.550; RWIGS  =    0.820    wigner-seitz radius (au A)                               
   ENMAX  =  400.000; ENMIN  =  300.000 eV                                                          
   ICORE  =        2    local potential                                                             
   LCOR   =        T    correct aug charges                                                         
   LPAW   =        T    paw PP                                                                      
   EAUG   =  605.392                                                                                
   DEXC   =    0.000                                                                                
   RMAX   =    1.553    core radius for proj-oper                                                   
   RAUG   =    1.300    factor for augmentation sphere                                              
   RDEP   =    1.550    radius for radial grids                                                     
   RDEPT  =    1.329    core radius for aug-charge                                                  
                                                                                                    
   Atomic configuration                                                                             
    4 entries                                                                                       
     n  l   j            E        occ.                                                              
     1  0  0.50      -514.6923   2.0000                                                             
     2  0  0.50       -23.9615   2.0000                                                             
     2  1  0.50        -9.0305   4.0000                                                             
     3  2  1.50        -9.5241   0.0000                                                             
   Description                                                                                      
     l       E           TYP  RCUT    TYP  RCUT                                                     
     0    -23.9615318     23  1.200                                                                 
     0     -9.5240782     23  1.200                                                                 
     1     -9.0304911     23  1.520                                                                 
     1      8.1634956     23  1.520                                                                 
     2     -9.5240782      7  1.500                                                                 
  local pseudopotential read in
  partial core-charges read in
  partial kinetic energy density read in
  kinetic energy density of atom read in
  atomic valenz-charges read in
  non local Contribution for L=           0  read in
    real space projection operators read in
  non local Contribution for L=           0  read in
    real space projection operators read in
  non local Contribution for L=           1  read in
    real space projection operators read in
  non local Contribution for L=           1  read in
    real space projection operators read in
    PAW grid and wavefunctions read in

   number of l-projection  operators is LMAX  =           4
   number of lm-projection operators is LMMAX =           8

 -----------------------------------------------------------------------------
|                                                                             |
|               ----> ADVICE to this user running VASP <----                  |
|                                                                             |
|     You have a (more or less) 'large supercell' and for larger cells it     |
|     might be more efficient to use real-space projection operators.         |
|     Therefore, try LREAL= Auto in the INCAR file.                           |
|     Mind: For very accurate calculation, you might also keep the            |
|     reciprocal projection scheme (i.e. LREAL=.FALSE.).                      |
|                                                                             |
 -----------------------------------------------------------------------------

 -----------------------------------------------------------------------------
|                                                                             |
|               ----> ADVICE to this user running VASP <----                  |
|                                                                             |
|     You enforced a specific xc type in the INCAR file but a different       |
|     type was found in the POTCAR file.                                      |
|     I HOPE YOU KNOW WHAT YOU ARE DOING!                                     |
|                                                                             |
 -----------------------------------------------------------------------------

  PAW_PBE C 08Apr2002                   :
 energy of atom  1       EATOM= -147.1560
 kinetic energy error for atom=    0.0057 (will be added to EATOM!!)
  PAW_PBE O 08Apr2002                   :
 energy of atom  2       EATOM= -432.3788
 kinetic energy error for atom=    0.0168 (will be added to EATOM!!)
  PAW_PBE Mg_pv 13Apr2007               :
 energy of atom  3       EATOM=-1056.7344
 kinetic energy error for atom=    0.0221 (will be added to EATOM!!)
  PAW_PBE O 08Apr2002                   :
 energy of atom  4       EATOM= -432.3788
 kinetic energy error for atom=    0.0168 (will be added to EATOM!!)


 POSCAR:  C  O Mg  O
  positions in direct lattice
  No initial velocities read in
 exchange correlation table for  LEXCH =       12
   RHO(1)=    0.500       N(1)  =     2000
   RHO(2)=  100.500       N(2)  =     4000



--------------------------------------------------------------------------------------------------------


 ion  position               nearest neighbor table
   1  0.500  0.500  0.768-   2 1.15
   2  0.500  0.500  0.822-   1 1.15
   3  0.000  0.750  0.352-  35 2.11  37 2.11  38 2.11  45 2.11  54 2.11
   4  0.250  0.000  0.352-  36 2.11  37 2.11  38 2.11  46 2.11  53 2.11
   5  0.000  0.000  0.451-  37 2.11  36 2.11  35 2.11  43 2.11  52 2.11  41 2.12
   6  0.250  0.750  0.451-  38 2.11  36 2.11  35 2.11  44 2.11  51 2.11  42 2.12
   7  0.000  0.750  0.550-  49 2.11  42 2.11  58 2.11  41 2.11  35 2.12  39 2.15
   8  0.250  0.000  0.550-  57 2.11  50 2.11  42 2.11  41 2.11  36 2.12  40 2.15
   9  0.000  0.000  0.649-  39 2.11  40 2.11  47 2.11  56 2.11  41 2.11
  10  0.250  0.750  0.649-  42 2.11  40 2.11  39 2.11  48 2.11  55 2.11
  11  0.000  0.250  0.352-  43 2.11  37 2.11  45 2.11  46 2.11  62 2.11
  12  0.250  0.500  0.352-  44 2.11  38 2.11  45 2.11  46 2.11  61 2.11
  13  0.000  0.500  0.451-  45 2.11  43 2.11  44 2.11  35 2.11  60 2.11  49 2.12
  14  0.250  0.250  0.451-  46 2.11  43 2.11  44 2.11  36 2.11  59 2.11  50 2.12
  15  0.000  0.250  0.550-  49 2.11  50 2.11  66 2.11  41 2.11  43 2.12  47 2.15
  16  0.250  0.500  0.550-  65 2.11  50 2.11  42 2.11  49 2.11  44 2.13  48 2.15
  17  0.000  0.500  0.649-  48 2.10  64 2.10  49 2.11  47 2.11  39 2.11
  18  0.250  0.250  0.649-  50 2.11  47 2.11  40 2.11  48 2.11  63 2.11
  19  0.500  0.750  0.352-  51 2.11  38 2.11  53 2.11  54 2.11  61 2.11
  20  0.750  0.000  0.352-  52 2.11  37 2.11  53 2.11  54 2.11  62 2.11
  21  0.500  0.000  0.451-  53 2.11  51 2.11  52 2.11  36 2.11  59 2.11  57 2.12
  22  0.750  0.750  0.451-  54 2.11  51 2.11  52 2.11  35 2.11  60 2.11  58 2.12
  23  0.500  0.750  0.550-  65 2.11  58 2.11  42 2.11  57 2.11  51 2.13  55 2.15
  24  0.750  0.000  0.550-  57 2.11  58 2.11  66 2.11  41 2.11  52 2.12  56 2.15
  25  0.500  0.000  0.649-  55 2.10  63 2.10  57 2.11  40 2.11  56 2.11
  26  0.750  0.750  0.649-  58 2.11  56 2.11  39 2.11  55 2.11  64 2.11
  27  0.500  0.250  0.352-  59 2.11  53 2.11  46 2.11  61 2.11  62 2.11
  28  0.750  0.500  0.352-  60 2.11  54 2.11  45 2.11  61 2.11  62 2.11
  29  0.500  0.500  0.451-  61 2.11  51 2.11  59 2.11  60 2.11  44 2.11  65 2.13
  30  0.750  0.250  0.451-  62 2.11  52 2.11  59 2.11  60 2.11  43 2.11  66 2.12
  31  0.500  0.250  0.550-  65 2.11  50 2.11  66 2.11  57 2.11  59 2.13  63 2.15
  32  0.750  0.500  0.550-  65 2.11  58 2.11  66 2.11  49 2.11  60 2.13  64 2.15
  33  0.500  0.500  0.651-  48 2.12  55 2.12  63 2.12  64 2.12  65 2.14
  34  0.750  0.250  0.649-  66 2.11  56 2.11  47 2.11  64 2.11  63 2.11
  35  0.000  0.750  0.451-   3 2.11   5 2.11   6 2.11  13 2.11  22 2.11   7 2.12
  36  0.250  0.000  0.451-   4 2.11   5 2.11   6 2.11  14 2.11  21 2.11   8 2.12
  37  0.000  0.000  0.352-   5 2.11   4 2.11   3 2.11  11 2.11  20 2.11
  38  0.250  0.750  0.352-   6 2.11   4 2.11   3 2.11  12 2.11  19 2.11
  39  0.000  0.750  0.651-   9 2.11  10 2.11  26 2.11  17 2.11   7 2.15
  40  0.250  0.000  0.651-   9 2.11  10 2.11  18 2.11  25 2.11   8 2.15
  41  0.000  0.000  0.550-   9 2.11   8 2.11   7 2.11  15 2.11  24 2.11   5 2.12
  42  0.250  0.750  0.550-  10 2.11   8 2.11   7 2.11  16 2.11  23 2.11   6 2.12
  43  0.000  0.250  0.451-  11 2.11   5 2.11  13 2.11  14 2.11  30 2.11  15 2.12
  44  0.250  0.500  0.451-  12 2.11   6 2.11  13 2.11  14 2.11  29 2.11  16 2.13
  45  0.000  0.500  0.352-  13 2.11  11 2.11  12 2.11   3 2.11  28 2.11
  46  0.250  0.250  0.352-  14 2.11  11 2.11  12 2.11   4 2.11  27 2.11
  47  0.000  0.250  0.651-   9 2.11  18 2.11  34 2.11  17 2.11  15 2.15
  48  0.249  0.500  0.651-  17 2.10  10 2.11  18 2.11  33 2.12  16 2.15
  49  0.000  0.500  0.550-  17 2.11  15 2.11   7 2.11  16 2.11  32 2.11  13 2.12
  50  0.250  0.250  0.550-  18 2.11  15 2.11   8 2.11  16 2.11  31 2.11  14 2.12
  51  0.500  0.750  0.451-  19 2.11   6 2.11  21 2.11  22 2.11  29 2.11  23 2.13
  52  0.750  0.000  0.451-  20 2.11   5 2.11  21 2.11  22 2.11  30 2.11  24 2.12
  53  0.500  0.000  0.352-  21 2.11  19 2.11  20 2.11   4 2.11  27 2.11
  54  0.750  0.750  0.352-  22 2.11  19 2.11  20 2.11   3 2.11  28 2.11
  55  0.500  0.751  0.651-  25 2.10  10 2.11  26 2.11  33 2.12  23 2.15
  56  0.750  0.000  0.651-   9 2.11  26 2.11  34 2.11  25 2.11  24 2.15
  57  0.500  0.000  0.550-  25 2.11  24 2.11   8 2.11  23 2.11  31 2.11  21 2.12
  58  0.750  0.750  0.550-  26 2.11  24 2.11   7 2.11  32 2.11  23 2.11  22 2.12
  59  0.500  0.250  0.451-  27 2.11  21 2.11  14 2.11  29 2.11  30 2.11  31 2.13
  60  0.750  0.500  0.451-  28 2.11  22 2.11  13 2.11  29 2.11  30 2.11  32 2.13
  61  0.500  0.500  0.352-  29 2.11  19 2.11  27 2.11  28 2.11  12 2.11
  62  0.750  0.250  0.352-  30 2.11  20 2.11  27 2.11  28 2.11  11 2.11
  63  0.500  0.249  0.651-  25 2.10  18 2.11  34 2.11  33 2.12  31 2.15
  64  0.751  0.500  0.651-  17 2.10  26 2.11  34 2.11  33 2.12  32 2.15
  65  0.500  0.500  0.550-  16 2.11  23 2.11  31 2.11  32 2.11  29 2.13  33 2.14
  66  0.750  0.250  0.550-  34 2.11  24 2.11  15 2.11  32 2.11  31 2.11  30 2.12

  LATTYP: Found a simple tetragonal cell.
 ALAT       =     8.4409846542
 C/A-ratio  =     2.5270438657
  
  Lattice vectors:
  
 A1 = (   8.4409846542,   0.0000000000,   0.0000000000)
 A2 = (   0.0000000000,   8.4409846542,   0.0000000000)
 A3 = (   0.0000000000,   0.0000000000,  21.3307384906)


Analysis of symmetry for initial positions (statically):
=====================================================================
 Subroutine PRICEL returns:
 Original cell was already a primitive cell.
 

 Routine SETGRP: Setting up the symmetry group for a 
 simple tetragonal supercell.


 Subroutine GETGRP returns: Found  8 space group operations
 (whereof  8 operations were pure point group operations)
 out of a pool of 16 trial point group operations.


The static configuration has the point symmetry C_4v.


Analysis of symmetry for dynamics (positions and initial velocities):
=====================================================================
 Subroutine PRICEL returns:
 Original cell was already a primitive cell.
 

 Routine SETGRP: Setting up the symmetry group for a 
 simple tetragonal supercell.


 Subroutine GETGRP returns: Found  8 space group operations
 (whereof  8 operations were pure point group operations)
 out of a pool of 16 trial point group operations.


The dynamic configuration has the point symmetry C_4v.


 Subroutine INISYM returns: Found  8 space group operations
 (whereof  8 operations are pure point group operations),
 and found     1 'primitive' translations


----------------------------------------------------------------------------------------

                                     Primitive cell                                     

  volume of cell :    1519.8199

  direct lattice vectors                    reciprocal lattice vectors
     8.440984654  0.000000000  0.000000000     0.118469591  0.000000000  0.000000000
     0.000000000  8.440984654  0.000000000     0.000000000  0.118469591  0.000000000
     0.000000000  0.000000000 21.330738491     0.000000000  0.000000000  0.046880702

  length of vectors
     8.440984654  8.440984654 21.330738491     0.118469591  0.118469591  0.046880702

  position of ions in fractional coordinates (direct lattice)
     0.500000000  0.500000000  0.767818716
     0.500000000  0.500000000  0.821582434
     0.000000000  0.750000000  0.351605267
     0.250000000  0.000000000  0.351605267
     0.000000000  0.000000000  0.450535089
     0.250000000  0.750000000  0.450535089
     0.000000000  0.749939268  0.550083239
     0.250060732  0.000000000  0.550083239
     0.000000000  0.000000000  0.648745309
     0.249858327  0.750141673  0.648569547
     0.000000000  0.250000000  0.351605267
     0.250000000  0.500000000  0.351605267
     0.000000000  0.500000000  0.450535089
     0.250000000  0.250000000  0.450535089
     0.000000000  0.250060732  0.550083239
     0.250378379  0.500000000  0.550219524
     0.000000000  0.500000000  0.648615280
     0.249858327  0.249858327  0.648569547
     0.500000000  0.750000000  0.351605267
     0.750000000  0.000000000  0.351605267
     0.500000000  0.000000000  0.450535089
     0.750000000  0.750000000  0.450535089
     0.500000000  0.749621621  0.550219524
     0.749939268  0.000000000  0.550083239
     0.500000000  0.000000000  0.648615280
     0.750141673  0.750141673  0.648569547
     0.500000000  0.250000000  0.351605267
     0.750000000  0.500000000  0.351605267
     0.500000000  0.500000000  0.450535089
     0.750000000  0.250000000  0.450535089
     0.500000000  0.250378379  0.550219524
     0.749621621  0.500000000  0.550219524
     0.500000000  0.500000000  0.650616960
     0.750141673  0.249858327  0.648569547
     0.000000000  0.750000000  0.450535089
     0.250000000  0.000000000  0.450535089
     0.000000000  0.000000000  0.351605267
     0.250000000  0.750000000  0.351605267
     0.000000000  0.750218533  0.650979255
     0.249781467  0.000000000  0.650979255
     0.000000000  0.000000000  0.549809890
     0.249945770  0.750054230  0.549859113
     0.000000000  0.250000000  0.450535089
     0.250000000  0.500000000  0.450535089
     0.000000000  0.500000000  0.351605267
     0.250000000  0.250000000  0.351605267
     0.000000000  0.249781467  0.650979255
     0.248822710  0.500000000  0.650882872
     0.000000000  0.500000000  0.549762666
     0.249945770  0.249945770  0.549859113
     0.500000000  0.750000000  0.450535089
     0.750000000  0.000000000  0.450535089
     0.500000000  0.000000000  0.351605267
     0.750000000  0.750000000  0.351605267
     0.500000000  0.751177290  0.650882872
     0.750218533  0.000000000  0.650979255
     0.500000000  0.000000000  0.549762666
     0.750054230  0.750054230  0.549859113
     0.500000000  0.250000000  0.450535089
     0.750000000  0.500000000  0.450535089
     0.500000000  0.500000000  0.351605267
     0.750000000  0.250000000  0.351605267
     0.500000000  0.248822710  0.650882872
     0.751177290  0.500000000  0.650882872
     0.500000000  0.500000000  0.550231357
     0.750054230  0.249945770  0.549859113

  ion indices of the primitive-cell ions
   primitive index   ion index
                 1           1
                 2           2
                 3           3
                 4           4
                 5           5
                 6           6
                 7           7
                 8           8
                 9           9
                10          10
                11          11
                12          12
                13          13
                14          14
                15          15
                16          16
                17          17
                18          18
                19          19
                20          20
                21          21
                22          22
                23          23
                24          24
                25          25
                26          26
                27          27
                28          28
                29          29
                30          30
                31          31
                32          32
                33          33
                34          34
                35          35
                36          36
                37          37
                38          38
                39          39
                40          40
                41          41
                42          42
                43          43
                44          44
                45          45
                46          46
                47          47
                48          48
                49          49
                50          50
                51          51
                52          52
                53          53
                54          54
                55          55
                56          56
                57          57
                58          58
                59          59
                60          60
                61          61
                62          62
                63          63
                64          64
                65          65
                66          66

----------------------------------------------------------------------------------------



 KPOINTS: pymatgen v2020.8.13 with grid density = 

Automatic generation of k-mesh.
 Grid dimensions read from file:
 generate k-points for:    2    2    1

 Generating k-lattice:

  Cartesian coordinates                     Fractional coordinates (reciprocal lattice)
     0.059234796  0.000000000  0.000000000     0.500000000  0.000000000  0.000000000
     0.000000000  0.059234796  0.000000000     0.000000000  0.500000000  0.000000000
     0.000000000  0.000000000  0.046880702     0.000000000  0.000000000  1.000000000

  Length of vectors
     0.059234796  0.059234796  0.046880702

  Shift w.r.t. Gamma in fractional coordinates (k-lattice)
     0.000000000  0.000000000  0.000000000

 
 Subroutine IBZKPT returns following result:
 ===========================================
 
 Found      3 irreducible k-points:
 
 Following reciprocal coordinates:
            Coordinates               Weight
  0.000000  0.000000  0.000000      1.000000
  0.500000  0.000000  0.000000      2.000000
  0.500000  0.500000  0.000000      1.000000
 
 Following cartesian coordinates:
            Coordinates               Weight
  0.000000  0.000000  0.000000      1.000000
  0.059235  0.000000  0.000000      2.000000
  0.059235  0.059235  0.000000      1.000000
 
 
 Subroutine IBZKPT_HF returns following result:
 ==============================================
 
 Found      4 k-points in 1st BZ
 the following      4 k-points will be used (e.g. in the exchange kernel)
 Following reciprocal coordinates:   # in IRBZ
  0.000000  0.000000  0.000000    0.25000000   1 t-inv F
  0.500000  0.000000  0.000000    0.25000000   2 t-inv F
  0.500000  0.500000  0.000000    0.25000000   3 t-inv F
 -0.000000  0.500000  0.000000    0.25000000   2 t-inv F


--------------------------------------------------------------------------------------------------------




 Dimension of arrays:
   k-points           NKPTS =      3   k-points in BZ     NKDIM =      4   number of bands    NBANDS=    320
   number of dos      NEDOS =    301   number of ions     NIONS =     66
   non local maximal  LDIM  =      5   non local SUM 2l+1 LMDIM =     13
   total plane-waves  NPLWV = 373248
   max r-space proj   IRMAX =      1   max aug-charges    IRDMAX=   5039
   dimension x,y,z NGX =    54 NGY =   54 NGZ =  128
   dimension x,y,z NGXF=   108 NGYF=  108 NGZF=  256
   support grid    NGXF=   108 NGYF=  108 NGZF=  256
   ions per type =               1   1  32  32
   NGX,Y,Z   is equivalent  to a cutoff of  10.64, 10.64,  9.98 a.u.
   NGXF,Y,Z  is equivalent  to a cutoff of  21.27, 21.27, 19.95 a.u.

 SYSTEM =  MgO-rocksalt                            
 POSCAR =   C  O Mg  O                             

 Startparameter for this run:
   NWRITE =      2    write-flag & timer
   PREC   = normal    normal or accurate (medium, high low for compatibility)
   ISTART =      0    job   : 0-new  1-cont  2-samecut
   ICHARG =      2    charge: 1-file 2-atom 10-const
   ISPIN  =      1    spin polarized calculation?
   LNONCOLLINEAR =      F non collinear calculations
   LSORBIT =      F    spin-orbit coupling
   INIWAV =      1    electr: 0-lowe 1-rand  2-diag
   LASPH  =      T    aspherical Exc in radial PAW
 Electronic Relaxation 1
   ENCUT  =  600.0 eV  44.10 Ry    6.64 a.u.  16.86 16.86 42.60*2*pi/ulx,y,z
   ENINI  =  600.0     initial cutoff
   ENAUG  =  758.8 eV  augmentation charge cutoff
   NELM   =    200;   NELMIN=  8; NELMDL= -5     # of ELM steps 
   EDIFF  = 0.1E-05   stopping-criterion for ELM
   LREAL  =      F    real-space projection
   NLSPLINE    = F    spline interpolate recip. space projectors
   LCOMPAT=      F    compatible to vasp.4.4
   GGA_COMPAT  = T    GGA compatible to vasp.4.4-vasp.4.6
   LMAXPAW     = -100 max onsite density
   LMAXMIX     =    2 max onsite mixed and CHGCAR
   VOSKOWN=      0    Vosko Wilk Nusair interpolation
   ROPT   =    0.00000   0.00000   0.00000   0.00000
 Ionic relaxation
   EDIFFG = -.1E-01   stopping-criterion for IOM
   NSW    =      0    number of steps for IOM
   NBLOCK =      1;   KBLOCK =      1    inner block; outer block 
   IBRION =     -1    ionic relax: 0-MD 1-quasi-New 2-CG
   NFREE  =      0    steps in history (QN), initial steepest desc. (CG)
   ISIF   =      2    stress and relaxation
   IWAVPR =     10    prediction:  0-non 1-charg 2-wave 3-comb
   ISYM   =      2    0-nonsym 1-usesym 2-fastsym
   LCORR  =      T    Harris-Foulkes like correction to forces

   POTIM  = 0.5000    time-step for ionic-motion
   TEIN   =    0.0    initial temperature
   TEBEG  =    0.0;   TEEND  =   0.0 temperature during run
   SMASS  =  -3.00    Nose mass-parameter (am)
   estimated Nose-frequenzy (Omega)   =  0.10E-29 period in steps = 0.13E+47 mass=  -0.163E-26a.u.
   SCALEE = 1.0000    scale energy and forces
   NPACO  =    256;   APACO  = 10.0  distance and # of slots for P.C.
   PSTRESS=    0.0 pullay stress

  Mass of Ions in am
   POMASS =  12.01 16.00 24.30 16.00
  Ionic Valenz
   ZVAL   =   4.00  6.00  8.00  6.00
  Atomic Wigner-Seitz radii
   RWIGS  =  -1.00 -1.00 -1.00 -1.00
  virtual crystal weights 
   VCA    =   1.00  1.00  1.00  1.00
   NELECT =     458.0000    total number of electrons
   NUPDOWN=      -1.0000    fix difference up-down

 DOS related values:
   EMIN   =  10.00;   EMAX   =-10.00  energy-range for DOS
   EFERMI =   0.00
   ISMEAR =     0;   SIGMA  =   0.05  broadening in eV -4-tet -1-fermi 0-gaus

 Electronic relaxation 2 (details)
   IALGO  =     58    algorithm
   LDIAG  =      T    sub-space diagonalisation (order eigenvalues)
   LSUBROT=      F    optimize rotation matrix (better conditioning)
   TURBO    =      0    0=normal 1=particle mesh
   IRESTART =      0    0=no restart 2=restart with 2 vectors
   NREBOOT  =      0    no. of reboots
   NMIN     =      0    reboot dimension
   EREF     =   0.00    reference energy to select bands
   IMIX   =      4    mixing-type and parameters
     AMIX     =   0.40;   BMIX     =  1.00
     AMIX_MAG =   1.60;   BMIX_MAG =  1.00
     AMIN     =   0.10
     WC   =   100.;   INIMIX=   1;  MIXPRE=   1;  MAXMIX= -45

 Intra band minimization:
   WEIMIN = 0.0000     energy-eigenvalue tresh-hold
   EBREAK =  0.78E-09  absolut break condition
   DEPER  =   0.30     relativ break condition  

   TIME   =   0.40     timestep for ELM

  volume/ion in A,a.u.               =      23.03       155.40
  Fermi-wavevector in a.u.,A,eV,Ry     =   1.097571  2.074108 16.390423  1.204662
  Thomas-Fermi vector in A             =   2.233933

 Write flags
   LWAVE        =      F    write WAVECAR
   LDOWNSAMPLE  =      F    k-point downsampling of WAVECAR
   LCHARG       =      F    write CHGCAR
   LVTOT        =      F    write LOCPOT, total local potential
   LVHAR        =      F    write LOCPOT, Hartree potential only
   LELF         =      F    write electronic localiz. function (ELF)
   LORBIT       =      0    0 simple, 1 ext, 2 COOP (PROOUT), +10 PAW based schemes


 Dipole corrections
   LMONO  =      F    monopole corrections only (constant potential shift)
   LDIPOL =      T    correct potential (dipole corrections)
   IDIPOL =      3    1-x, 2-y, 3-z, 4-all directions 
   EPSILON=  1.0000000 bulk dielectric constant

 Exchange correlation treatment:
   GGA     =    B5    GGA type
   LEXCH   =    12    internal setting for exchange type
   LIBXC   =     F    Libxc                    
   VOSKOWN =     0    Vosko Wilk Nusair interpolation
   EXXOEP  =     0    0=HF, 1=EXX-LHF (local Hartree Fock) 2=EXX OEP
   LHFCALC =     T    Hartree Fock is set to
   LSYMGRAD=     F    symmetrize gradient (conserves proper symmetry)
   PRECFOCK=normal    Normal, Fast or Accurate (Low or Medium for compatibility)
   LRHFCALC=     F    long range Hartree Fock
   LRSCOR  =     F    long range correlation only (use DFT for short range part)
   LTHOMAS =     F    Thomas Fermi screening in HF
   LMODELHF=     F    short range full HF, long range fraction AEXX
   LFOCKACE=     T    use Adeptively-Compressed-Exchange operator
   ENCUT4O =  -1.0   cutoff for four orbital integrals eV
   LMAXFOCK=     4    L truncation for augmentation on plane wave grid
   LMAXFOCKAE=  -1    L truncation for all-electron charge restoration on plane wave grid
   NMAXFOCKAE=   1    number of basis functions for all-electron charge restoration
   LFOCKAEDFT=     F  apply the AE augmentation even for DFT
   NKREDX  =     1    reduce k-point grid by
   NKREDY  =     1    reduce k-point grid by
   NKREDZ  =     1    reduce k-point grid by
   SHIFTRED=     F    shift reduced grid of Gamma
   HFKIDENT=     F    idential grid for each k-point
   ODDONLY =     F    use only odd q-grid points
   EVENONLY=     F    use only even q-grid points
   HFALPHA =   -1.0000 decay constant for conv. correction
   MCALPHA =    0.0000 extent of test-charge in conv. correction in multipole expansion
   AEXX    =    0.2000 exact exchange contribution
   HFSCREEN=    0.0000 screening length (either q_TF or 0.3 A-1)
   HFSCREENC=   0.0000 screening length for correlation (either q_TF or 0.3 A-1)
   HFRCUT  =    0.0000 spherical cutoff for potential kernel
   ALDAX   =    0.8000 LDA exchange part
   AGGAX   =    0.7200 GGA exchange part
   ALDAC   =    0.1900 LDA correlation
   AGGAC   =    0.8100 GGA correlation
   ENCUTFOCK=  -1.0 apply spherical cutoff to Coloumb kernel
   NBANDSGWLOW=     1    first orbital included in HF term
   NBLOCK_FOCK=    64    blocking factor in FOCK_ACC

 Linear response parameters
   LEPSILON=     F    determine dielectric tensor
   LRPA    =     F    only Hartree local field effects (RPA)
   LNABLA  =     F    use nabla operator in PAW spheres
   LVEL    =     F    velocity operator in full k-point grid
   CSHIFT  =0.1000    complex shift for real part using Kramers Kronig
   OMEGAMAX=  -1.0    maximum frequency
   DEG_THRESHOLD= 0.2000000E-02 threshold for treating states as degnerate
   RTIME   =   -0.100 relaxation time in fs
  (WPLASMAI=    0.000 imaginary part of plasma frequency in eV, 0.658/RTIME)
   DFIELD  = 0.0000000 0.0000000 0.0000000 field for delta impulse in time

  Optional k-point grid parameters
   LKPOINTS_OPT  =     F    use optional k-point grid
   KPOINTS_OPT_MODE=     1    mode for optional k-point grid

 Orbital magnetization related:
   ORBITALMAG=     F  switch on orbital magnetization
   LCHIMAG   =     F  perturbation theory with respect to B field
   DQ        =  0.001000  dq finite difference perturbation B field
   LLRAUG    =     F  two centre corrections for induced B field



--------------------------------------------------------------------------------------------------------


 Static calculation
 charge density and potential will be updated during run
 non-spin polarized calculation
 Conjugate gradient for all bands (Freysoldt, et al. PRB 79, 241103 (2009))
 preconditioned conjugated gradient                                        
 perform sub-space diagonalisation
    before iterative eigenvector-optimisation
 modified Broyden-mixing scheme, WC =      100.0
 initial mixing is a Kerker type mixing with AMIX =  0.4000 and BMIX =      1.0000
 Hartree-type preconditioning will be used
 using additional bands           91
 reciprocal scheme for non local part
 use partial core corrections
 no Harris-corrections to forces 
 use gradient corrections 
 use of overlap-Matrix (Vanderbilt PP)
 Gauss-broadening in eV      SIGMA  =   0.05


--------------------------------------------------------------------------------------------------------


  energy-cutoff  :      600.00
  volume of cell :     1519.82
      direct lattice vectors                 reciprocal lattice vectors
     8.440984654  0.000000000  0.000000000     0.118469591  0.000000000  0.000000000
     0.000000000  8.440984654  0.000000000     0.000000000  0.118469591  0.000000000
     0.000000000  0.000000000 21.330738491     0.000000000  0.000000000  0.046880702

  length of vectors
     8.440984654  8.440984654 21.330738491     0.118469591  0.118469591  0.046880702



 k-points in units of 2pi/SCALE and weight: pymatgen v2020.8.13 with grid density = 
   0.00000000  0.00000000  0.00000000       0.250
   0.05923480  0.00000000  0.00000000       0.500
   0.05923480  0.05923480  0.00000000       0.250

 k-points in reciprocal lattice and weights: pymatgen v2020.8.13 with grid density = 
   0.00000000  0.00000000  0.00000000       0.250
   0.50000000  0.00000000  0.00000000       0.500
   0.50000000  0.50000000  0.00000000       0.250

 position of ions in fractional coordinates (direct lattice) 
   0.50000000  0.50000000  0.76781872
   0.50000000  0.50000000  0.82158243
   0.00000000  0.75000000  0.35160527
   0.25000000  0.00000000  0.35160527
   0.00000000  0.00000000  0.45053509
   0.25000000  0.75000000  0.45053509
   0.00000000  0.74993927  0.55008324
   0.25006073  0.00000000  0.55008324
   0.00000000  0.00000000  0.64874531
   0.24985833  0.75014167  0.64856955
   0.00000000  0.25000000  0.35160527
   0.25000000  0.50000000  0.35160527
   0.00000000  0.50000000  0.45053509
   0.25000000  0.25000000  0.45053509
   0.00000000  0.25006073  0.55008324
   0.25037838  0.50000000  0.55021952
   0.00000000  0.50000000  0.64861528
   0.24985833  0.24985833  0.64856955
   0.50000000  0.75000000  0.35160527
   0.75000000  0.00000000  0.35160527
   0.50000000  0.00000000  0.45053509
   0.75000000  0.75000000  0.45053509
   0.50000000  0.74962162  0.55021952
   0.74993927  0.00000000  0.55008324
   0.50000000  0.00000000  0.64861528
   0.75014167  0.75014167  0.64856955
   0.50000000  0.25000000  0.35160527
   0.75000000  0.50000000  0.35160527
   0.50000000  0.50000000  0.45053509
   0.75000000  0.25000000  0.45053509
   0.50000000  0.25037838  0.55021952
   0.74962162  0.50000000  0.55021952
   0.50000000  0.50000000  0.65061696
   0.75014167  0.24985833  0.64856955
   0.00000000  0.75000000  0.45053509
   0.25000000  0.00000000  0.45053509
   0.00000000  0.00000000  0.35160527
   0.25000000  0.75000000  0.35160527
   0.00000000  0.75021853  0.65097926
   0.24978147  0.00000000  0.65097926
   0.00000000  0.00000000  0.54980989
   0.24994577  0.75005423  0.54985911
   0.00000000  0.25000000  0.45053509
   0.25000000  0.50000000  0.45053509
   0.00000000  0.50000000  0.35160527
   0.25000000  0.25000000  0.35160527
   0.00000000  0.24978147  0.65097926
   0.24882271  0.50000000  0.65088287
   0.00000000  0.50000000  0.54976267
   0.24994577  0.24994577  0.54985911
   0.50000000  0.75000000  0.45053509
   0.75000000  0.00000000  0.45053509
   0.50000000  0.00000000  0.35160527
   0.75000000  0.75000000  0.35160527
   0.50000000  0.75117729  0.65088287
   0.75021853  0.00000000  0.65097926
   0.50000000  0.00000000  0.54976267
   0.75005423  0.75005423  0.54985911
   0.50000000  0.25000000  0.45053509
   0.75000000  0.50000000  0.45053509
   0.50000000  0.50000000  0.35160527
   0.75000000  0.25000000  0.35160527
   0.50000000  0.24882271  0.65088287
   0.75117729  0.50000000  0.65088287
   0.50000000  0.50000000  0.55023136
   0.75005423  0.24994577  0.54985911

 position of ions in cartesian coordinates  (Angst):
   4.22049233  4.22049233 16.37814023
   4.22049233  4.22049233 17.52496005
   0.00000000  6.33073849  7.50000000
   2.11024616  0.00000000  7.50000000
   0.00000000  0.00000000  9.61024616
   2.11024616  6.33073849  9.61024616
   0.00000000  6.33022585 11.73368172
   2.11075880  0.00000000 11.73368172
   0.00000000  0.00000000 13.83821654
   2.10905031  6.33193435 13.83446740
   0.00000000  2.11024616  7.50000000
   2.11024616  4.22049233  7.50000000
   0.00000000  4.22049233  9.61024616
   2.11024616  2.11024616  9.61024616
   0.00000000  2.11075880 11.73368172
   2.11344006  4.22049233 11.73658877
   0.00000000  4.22049233 13.83544293
   2.10905031  2.10905031 13.83446740
   4.22049233  6.33073849  7.50000000
   6.33073849  0.00000000  7.50000000
   4.22049233  0.00000000  9.61024616
   6.33073849  6.33073849  9.61024616
   4.22049233  6.32754460 11.73658877
   6.33022585  0.00000000 11.73368172
   4.22049233  0.00000000 13.83544293
   6.33193435  6.33193435 13.83446740
   4.22049233  2.11024616  7.50000000
   6.33073849  4.22049233  7.50000000
   4.22049233  4.22049233  9.61024616
   6.33073849  2.11024616  9.61024616
   4.22049233  2.11344006 11.73658877
   6.32754460  4.22049233 11.73658877
   4.22049233  4.22049233 13.87814023
   6.33193435  2.10905031 13.83446740
   0.00000000  6.33073849  9.61024616
   2.11024616  0.00000000  9.61024616
   0.00000000  0.00000000  7.50000000
   2.11024616  6.33073849  7.50000000
   0.00000000  6.33258312 13.88586825
   2.10840153  0.00000000 13.88586825
   0.00000000  0.00000000 11.72785099
   2.10978841  6.33119624 11.72890095
   0.00000000  2.11024616  9.61024616
   2.11024616  4.22049233  9.61024616
   0.00000000  4.22049233  7.50000000
   2.11024616  2.11024616  7.50000000
   0.00000000  2.10840153 13.88586825
   2.10030867  4.22049233 13.88381232
   0.00000000  4.22049233 11.72684365
   2.10978841  2.10978841 11.72890095
   4.22049233  6.33073849  9.61024616
   6.33073849  0.00000000  9.61024616
   4.22049233  0.00000000  7.50000000
   6.33073849  6.33073849  7.50000000
   4.22049233  6.34067598 13.88381232
   6.33258312  0.00000000 13.88586825
   4.22049233  0.00000000 11.72684365
   6.33119624  6.33119624 11.72890095
   4.22049233  2.11024616  9.61024616
   6.33073849  4.22049233  9.61024616
   4.22049233  4.22049233  7.50000000
   6.33073849  2.11024616  7.50000000
   4.22049233  2.10030867 13.88381232
   6.34067598  4.22049233 13.88381232
   4.22049233  4.22049233 11.73684118
   6.33119624  2.10978841 11.72890095



--------------------------------------------------------------------------------------------------------


 k-point   1 :   0.0000 0.0000 0.0000  plane waves:   50745
 k-point   2 :   0.5000 0.0000 0.0000  plane waves:   50798
 k-point   3 :   0.5000 0.5000 0.0000  plane waves:   50752

 maximum and minimum number of plane-waves per node :      6394     6276

 maximum number of plane-waves:     50798
 maximum index in each direction: 
   IXMAX=   16   IYMAX=   16   IZMAX=   42
   IXMIN=  -17   IYMIN=  -17   IZMIN=  -42


 parallel 3D FFT for wavefunctions:
    minimum data exchange during FFTs selected (reduces bandwidth)
 parallel 3D FFT for charge:
    minimum data exchange during FFTs selected (reduces bandwidth)


 Radii for the augmentation spheres in the non-local exchange
 for species   1 augmentation radius   0.874 (default was   0.699)
       energy cutoff for augmentation   2400.0
 for species   2 augmentation radius   0.902 (default was   0.722)
       energy cutoff for augmentation   2400.0
 for species   3 augmentation radius   1.037 (default was   0.829)
       energy cutoff for augmentation   2400.0
 for species   4 augmentation radius   0.902 (default was   0.722)
       energy cutoff for augmentation   2400.0

 real space projection operators:
  total allocation   :       8962.80 KBytes
  max/ min on nodes  :       1251.27        827.47

 Maximum index for augmentation-charges in exchange          164
  SETUP_FOCK is finished

 total amount of memory used by VASP MPI-rank0    60467. kBytes
=======================================================================

   base      :      30000. kBytes
   nonl-proj :      14893. kBytes
   fftplans  :       3932. kBytes
   grid      :       3944. kBytes
   one-center:         73. kBytes
   HF        :        101. kBytes
   nonlr-proj:       2778. kBytes
   wavefun   :       4746. kBytes

     INWAV:  cpu time      0.0001: real time      0.0003
 Broyden mixing: mesh for mixing (old mesh)
   NGX = 33   NGY = 33   NGZ = 85
  (NGX  =108   NGY  =108   NGZ  =256)
  gives a total of  92565 points

 initial charge density was supplied:
 charge density of overlapping atoms calculated
 number of electron     458.0000000 magnetization 
 keeping initial charge density in first step


--------------------------------------------------------------------------------------------------------


 Maximum index for augmentation-charges          334 (set IRDMAX)


--------------------------------------------------------------------------------------------------------


    FEWALD:  cpu time      0.0028: real time      0.0028


--------------------------------------- Iteration      1(   1)  ---------------------------------------


    POTLOK:  cpu time      0.0695: real time      0.0698
    SETDIJ:  cpu time      0.1911: real time      0.1911
    TRIAL :  cpu time     18.7578: real time     18.8536
    CORREC:  cpu time      0.0013: real time      0.0013
    --------------------------------------------
      LOOP:  cpu time     19.0229: real time     19.1191

 eigenvalue-minimisations  :  2304
 total energy-change (2. order) : 0.1341023E+04  (-0.3092958E+05)
 number of electron     458.0000000 magnetization 
 augmentation part      458.0000000 magnetization 

 DIPCOR: dipole corrections for dipol
 direction  3 min pos     1,
 dipolmoment           0.000000      0.000000     -0.000297 electrons x Angstroem
 Tr[quadrupol]     -6318.707632

 energy correction for charged system         0.000000 eV
 dipol+quadrupol energy correction           -0.000000 eV
 added-field ion interaction          0.002424 eV  (added to PSCEN)


 Free energy of the ion-electron system (eV)
  ---------------------------------------------------
  alpha Z        PSCENC =       907.96652769
  Ewald energy   TEWEN  =    137007.52336140
  -Hartree energ DENC   =   -173106.72891476
  -exchange      EXHF   =         0.00000000
  -V(xc)+E(xc)   XCENC  =      1789.16160598
  PAW double counting   =     32310.01086261   -38519.19434489
  entropy T*S    EENTRO =        -0.01462142
  eigenvalues    EBANDS =     -7243.39603368
  atomic energy  EATOM  =     48195.69443388
  ---------------------------------------------------
  free energy    TOTEN  =      1341.02287682 eV

  energy without entropy =     1341.03749825  energy(sigma->0) =     1341.03018754
  exchange ACFDT corr.  =         0.00000000  see jH, gK, PRB 81, 115126


--------------------------------------------------------------------------------------------------------




--------------------------------------- Iteration      1(   2)  ---------------------------------------


    TRIAL :  cpu time      2.8318: real time      2.8321
    CORREC:  cpu time      0.0003: real time      0.0003
    --------------------------------------------
      LOOP:  cpu time      2.8376: real time      2.8475

 eigenvalue-minimisations  :  2304
 total energy-change (2. order) :-0.4303139E+04  (-0.4231426E+04)
 number of electron     458.0000000 magnetization 
 augmentation part      458.0000000 magnetization 

 DIPCOR: dipole corrections for dipol
 direction  3 min pos     1,
 dipolmoment           0.000000      0.000000     -0.000297 electrons x Angstroem
 Tr[quadrupol]     -6318.707632

 energy correction for charged system         0.000000 eV
 dipol+quadrupol energy correction           -0.000000 eV
 added-field ion interaction          0.002424 eV  (added to PSCEN)


 Free energy of the ion-electron system (eV)
  ---------------------------------------------------
  alpha Z        PSCENC =       907.96652769
  Ewald energy   TEWEN  =    137007.52336140
  -Hartree energ DENC   =   -173106.72891476
  -exchange      EXHF   =         0.00000000
  -V(xc)+E(xc)   XCENC  =      1789.16160598
  PAW double counting   =     32310.01086261   -38519.19434489
  entropy T*S    EENTRO =        -0.00000000
  eigenvalues    EBANDS =    -11546.54999864
  atomic energy  EATOM  =     48195.69443388
  ---------------------------------------------------
  free energy    TOTEN  =     -2962.11646671 eV

  energy without entropy =    -2962.11646671  energy(sigma->0) =    -2962.11646671
  exchange ACFDT corr.  =         0.00000000  see jH, gK, PRB 81, 115126


--------------------------------------------------------------------------------------------------------




--------------------------------------- Iteration      1(   3)  ---------------------------------------


    TRIAL :  cpu time      3.0125: real time      3.0127
    CORREC:  cpu time      0.0003: real time      0.0003
    --------------------------------------------
      LOOP:  cpu time      3.0191: real time      3.0277

 eigenvalue-minimisations  :  2304
 total energy-change (2. order) :-0.3161665E+03  (-0.3140209E+03)
 number of electron     458.0000000 magnetization 
 augmentation part      458.0000000 magnetization 

 DIPCOR: dipole corrections for dipol
 direction  3 min pos     1,
 dipolmoment           0.000000      0.000000     -0.000297 electrons x Angstroem
 Tr[quadrupol]     -6318.707632

 energy correction for charged system         0.000000 eV
 dipol+quadrupol energy correction           -0.000000 eV
 added-field ion interaction          0.002424 eV  (added to PSCEN)


 Free energy of the ion-electron system (eV)
  ---------------------------------------------------
  alpha Z        PSCENC =       907.96652769
  Ewald energy   TEWEN  =    137007.52336140
  -Hartree energ DENC   =   -173106.72891476
  -exchange      EXHF   =         0.00000000
  -V(xc)+E(xc)   XCENC  =      1789.16160598
  PAW double counting   =     32310.01086261   -38519.19434489
  entropy T*S    EENTRO =        -0.00000000
  eigenvalues    EBANDS =    -11862.71649872
  atomic energy  EATOM  =     48195.69443388
  ---------------------------------------------------
  free energy    TOTEN  =     -3278.28296679 eV

  energy without entropy =    -3278.28296679  energy(sigma->0) =    -3278.28296679
  exchange ACFDT corr.  =         0.00000000  see jH, gK, PRB 81, 115126


--------------------------------------------------------------------------------------------------------




--------------------------------------- Iteration      1(   4)  ---------------------------------------


    TRIAL :  cpu time      3.1423: real time      3.1428
    CORREC:  cpu time      0.0003: real time      0.0003
    --------------------------------------------
      LOOP:  cpu time      3.1566: real time      3.1574

 eigenvalue-minimisations  :  2368
 total energy-change (2. order) :-0.6179028E+01  (-0.6172091E+01)
 number of electron     458.0000000 magnetization 
 augmentation part      458.0000000 magnetization 

 DIPCOR: dipole corrections for dipol
 direction  3 min pos     1,
 dipolmoment           0.000000      0.000000     -0.000297 electrons x Angstroem
 Tr[quadrupol]     -6318.707632

 energy correction for charged system         0.000000 eV
 dipol+quadrupol energy correction           -0.000000 eV
 added-field ion interaction          0.002424 eV  (added to PSCEN)


 Free energy of the ion-electron system (eV)
  ---------------------------------------------------
  alpha Z        PSCENC =       907.96652769
  Ewald energy   TEWEN  =    137007.52336140
  -Hartree energ DENC   =   -173106.72891476
  -exchange      EXHF   =         0.00000000
  -V(xc)+E(xc)   XCENC  =      1789.16160598
  PAW double counting   =     32310.01086261   -38519.19434489
  entropy T*S    EENTRO =        -0.00000000
  eigenvalues    EBANDS =    -11868.89552703
  atomic energy  EATOM  =     48195.69443388
  ---------------------------------------------------
  free energy    TOTEN  =     -3284.46199510 eV

  energy without entropy =    -3284.46199510  energy(sigma->0) =    -3284.46199510
  exchange ACFDT corr.  =         0.00000000  see jH, gK, PRB 81, 115126


--------------------------------------------------------------------------------------------------------




--------------------------------------- Iteration      1(   5)  ---------------------------------------


    POTLOK:  cpu time      0.1178: real time      0.1178
    SETDIJ:  cpu time      0.6325: real time      0.6325
    TRIAL :  cpu time     71.8863: real time     71.8950
    CORREC:  cpu time      0.0002: real time      0.0002
    CHARGE:  cpu time      0.0660: real time      0.0663
    --------------------------------------------
      LOOP:  cpu time     72.7084: real time     72.7262

 eigenvalue-minimisations  :  2304
 total energy-change (2. order) : 0.2747909E+04  (-0.1469373E+01)
 number of electron     457.9999404 magnetization 
 augmentation part      160.7582772 magnetization 

 DIPCOR: dipole corrections for dipol
 direction  3 min pos     1,
 dipolmoment           0.000000      0.000000     -0.000297 electrons x Angstroem
 Tr[quadrupol]     -6318.707632

 energy correction for charged system         0.000000 eV
 dipol+quadrupol energy correction           -0.000000 eV
 added-field ion interaction          0.002424 eV  (added to PSCEN)


 Free energy of the ion-electron system (eV)
  ---------------------------------------------------
  alpha Z        PSCENC =       907.96652769
  Ewald energy   TEWEN  =    137007.52336140
  -Hartree energ DENC   =   -173106.72891476
  -exchange      EXHF   =      1361.70216203
  -V(xc)+E(xc)   XCENC  =      1423.07954608
  PAW double counting   =     32649.43877705   -36331.98648824
  entropy T*S    EENTRO =        -0.00000000
  eigenvalues    EBANDS =    -12643.24232641
  atomic energy  EATOM  =     48195.69443388
  ---------------------------------------------------
  free energy    TOTEN  =      -536.55292126 eV

  energy without entropy =     -536.55292126  energy(sigma->0) =     -536.55292126
  exchange ACFDT corr.  =        -0.00000000  see jH, gK, PRB 81, 115126


--------------------------------------------------------------------------------------------------------




--------------------------------------- Iteration      1(   6)  ---------------------------------------


    POTLOK:  cpu time      0.1050: real time      0.1050
    SETDIJ:  cpu time      0.6300: real time      0.6301
    TRIAL :  cpu time     69.5399: real time     69.5488
    CORREC:  cpu time     69.6728: real time     69.6808
    CHARGE:  cpu time      0.0575: real time      0.0575
    --------------------------------------------
      LOOP:  cpu time    140.0361: real time    140.0533

 eigenvalue-minimisations  :     0
 total energy-change (2. order) : 0.2291386E+03  (-0.1219313E+03)
 number of electron     457.9999286 magnetization 
 augmentation part      157.2246738 magnetization 

 DIPCOR: dipole corrections for dipol
 direction  3 min pos     1,
 dipolmoment           0.000000      0.000000      0.321950 electrons x Angstroem
 Tr[quadrupol]     -6350.082083

 energy correction for charged system         0.000000 eV
 dipol+quadrupol energy correction           -0.006171 eV
 added-field ion interaction         -2.629490 eV  (added to PSCEN)


 Free energy of the ion-electron system (eV)
  ---------------------------------------------------
  alpha Z        PSCENC =       903.20181771
  Ewald energy   TEWEN  =    137007.52336140
  -Hartree energ DENC   =   -177188.04546897
  -exchange      EXHF   =      1369.21370987
  -V(xc)+E(xc)   XCENC  =      1540.72953029
  PAW double counting   =     37767.07332670   -41410.84628298
  entropy T*S    EENTRO =        -0.00000000
  eigenvalues    EBANDS =     -8491.95870155
  atomic energy  EATOM  =     48195.69443388
  ---------------------------------------------------
  free energy    TOTEN  =      -307.41427364 eV

  energy without entropy =     -307.41427364  energy(sigma->0) =     -307.41427364
  exchange ACFDT corr.  =         0.00000000  see jH, gK, PRB 81, 115126


--------------------------------------------------------------------------------------------------------




--------------------------------------- Iteration      1(   7)  ---------------------------------------


    POTLOK:  cpu time      0.1206: real time      0.1206
    SETDIJ:  cpu time      0.6306: real time      0.6306
    TRIAL :  cpu time     69.1602: real time     69.1662
    CORREC:  cpu time     69.7778: real time     69.7837
    CHARGE:  cpu time      0.0567: real time      0.0567
    --------------------------------------------
      LOOP:  cpu time    139.7537: real time    139.7738

 eigenvalue-minimisations  :     0
 total energy-change (2. order) :-0.1226668E+03  (-0.9928631E+01)
 number of electron     457.9999270 magnetization 
 augmentation part      155.2725110 magnetization 

 DIPCOR: dipole corrections for dipol
 direction  3 min pos     1,
 dipolmoment           0.000000      0.000000      0.259455 electrons x Angstroem
 Tr[quadrupol]     -6360.635046

 energy correction for charged system         0.000000 eV
 dipol+quadrupol energy correction           -0.004008 eV
 added-field ion interaction         -2.119068 eV  (added to PSCEN)


 Free energy of the ion-electron system (eV)
  ---------------------------------------------------
  alpha Z        PSCENC =       905.01997275
  Ewald energy   TEWEN  =    137007.52336140
  -Hartree energ DENC   =   -175122.32445736
  -exchange      EXHF   =      1315.45047515
  -V(xc)+E(xc)   XCENC  =      1475.37238104
  PAW double counting   =     36490.60792776   -40189.86420614
  entropy T*S    EENTRO =        -0.00000000
  eigenvalues    EBANDS =    -10507.56093207
  atomic energy  EATOM  =     48195.69443388
  ---------------------------------------------------
  free energy    TOTEN  =      -430.08104359 eV

  energy without entropy =     -430.08104359  energy(sigma->0) =     -430.08104359
  exchange ACFDT corr.  =         0.00000000  see jH, gK, PRB 81, 115126


--------------------------------------------------------------------------------------------------------




--------------------------------------- Iteration      1(   8)  ---------------------------------------


    POTLOK:  cpu time      0.1058: real time      0.1058
    SETDIJ:  cpu time      0.6317: real time      0.6318
    TRIAL :  cpu time     69.0768: real time     69.0836
    CORREC:  cpu time     69.6428: real time     69.6482
    CHARGE:  cpu time      0.0565: real time      0.0565
    --------------------------------------------
      LOOP:  cpu time    139.5288: real time    139.5416

 eigenvalue-minimisations  :     0
 total energy-change (2. order) :-0.9988241E+01  (-0.6651920E+01)
 number of electron     457.9999248 magnetization 
 augmentation part      155.3743154 magnetization 

 DIPCOR: dipole corrections for dipol
 direction  3 min pos     1,
 dipolmoment           0.000000      0.000000      0.139490 electrons x Angstroem
 Tr[quadrupol]     -6361.632037

 energy correction for charged system         0.000000 eV
 dipol+quadrupol energy correction           -0.001158 eV
 added-field ion interaction         -1.139270 eV  (added to PSCEN)


 Free energy of the ion-electron system (eV)
  ---------------------------------------------------
  alpha Z        PSCENC =       906.20846897
  Ewald energy   TEWEN  =    137007.52336140
  -Hartree energ DENC   =   -175165.91581450
  -exchange      EXHF   =      1309.26794548
  -V(xc)+E(xc)   XCENC  =      1466.85895835
  PAW double counting   =     36397.51965392   -40034.82644064
  entropy T*S    EENTRO =        -0.00000000
  eigenvalues    EBANDS =    -10522.39985143
  atomic energy  EATOM  =     48195.69443388
  ---------------------------------------------------
  free energy    TOTEN  =      -440.06928456 eV

  energy without entropy =     -440.06928456  energy(sigma->0) =     -440.06928456
  exchange ACFDT corr.  =        -0.00000000  see jH, gK, PRB 81, 115126


--------------------------------------------------------------------------------------------------------




--------------------------------------- Iteration      1(   9)  ---------------------------------------


    POTLOK:  cpu time      0.1068: real time      0.1068
    SETDIJ:  cpu time      0.6317: real time      0.6317
    TRIAL :  cpu time     69.2380: real time     69.2440
    CORREC:  cpu time     69.8293: real time     69.8346
    CHARGE:  cpu time      0.0562: real time      0.0562
    --------------------------------------------
      LOOP:  cpu time    139.8702: real time    139.8888

 eigenvalue-minimisations  :     0
 total energy-change (2. order) :-0.6499495E+01  (-0.3032931E+01)
 number of electron     457.9999246 magnetization 
 augmentation part      155.3136059 magnetization 

 DIPCOR: dipole corrections for dipol
 direction  3 min pos     1,
 dipolmoment           0.000000      0.000000      0.075602 electrons x Angstroem
 Tr[quadrupol]     -6353.709993

 energy correction for charged system         0.000000 eV
 dipol+quadrupol energy correction           -0.000340 eV
 added-field ion interaction         -0.617470 eV  (added to PSCEN)


 Free energy of the ion-electron system (eV)
  ---------------------------------------------------
  alpha Z        PSCENC =       907.20133579
  Ewald energy   TEWEN  =    137007.52336140
  -Hartree energ DENC   =   -175058.90585369
  -exchange      EXHF   =      1306.46093856
  -V(xc)+E(xc)   XCENC  =      1465.01787990
  PAW double counting   =     36281.45298169   -39959.22334357
  entropy T*S    EENTRO =        -0.00000000
  eigenvalues    EBANDS =    -10591.79051306
  atomic energy  EATOM  =     48195.69443388
  ---------------------------------------------------
  free energy    TOTEN  =      -446.56877910 eV

  energy without entropy =     -446.56877910  energy(sigma->0) =     -446.56877910
  exchange ACFDT corr.  =         0.00000000  see jH, gK, PRB 81, 115126


--------------------------------------------------------------------------------------------------------




--------------------------------------- Iteration      1(  10)  ---------------------------------------


    POTLOK:  cpu time      0.1090: real time      0.1090
    SETDIJ:  cpu time      0.6320: real time      0.6320
    TRIAL :  cpu time     69.2367: real time     69.2417
    CORREC:  cpu time     69.7219: real time     69.7271
    CHARGE:  cpu time      0.0534: real time      0.0534
    --------------------------------------------
      LOOP:  cpu time    139.7724: real time    139.7832

 eigenvalue-minimisations  :     0
 total energy-change (2. order) :-0.3069363E+01  (-0.1053907E+01)
 number of electron     457.9999254 magnetization 
 augmentation part      155.1902881 magnetization 

 DIPCOR: dipole corrections for dipol
 direction  3 min pos     1,
 dipolmoment           0.000000      0.000000      0.111693 electrons x Angstroem
 Tr[quadrupol]     -6351.440177

 energy correction for charged system         0.000000 eV
 dipol+quadrupol energy correction           -0.000743 eV
 added-field ion interaction         -0.912236 eV  (added to PSCEN)


 Free energy of the ion-electron system (eV)
  ---------------------------------------------------
  alpha Z        PSCENC =       907.32362864
  Ewald energy   TEWEN  =    137007.52336140
  -Hartree energ DENC   =   -174839.38176476
  -exchange      EXHF   =      1303.33720634
  -V(xc)+E(xc)   XCENC  =      1462.55786101
  PAW double counting   =     36132.51675542   -39817.42575557
  entropy T*S    EENTRO =        -0.00000000
  eigenvalues    EBANDS =    -10801.78386871
  atomic energy  EATOM  =     48195.69443388
  ---------------------------------------------------
  free energy    TOTEN  =      -449.63814234 eV

  energy without entropy =     -449.63814234  energy(sigma->0) =     -449.63814234
  exchange ACFDT corr.  =         0.00000000  see jH, gK, PRB 81, 115126


--------------------------------------------------------------------------------------------------------




--------------------------------------- Iteration      1(  11)  ---------------------------------------


    POTLOK:  cpu time      0.1104: real time      0.1104
    SETDIJ:  cpu time      0.6317: real time      0.6318
    TRIAL :  cpu time     69.2290: real time     69.2346
    CORREC:  cpu time     69.7286: real time     69.7336
    CHARGE:  cpu time      0.0554: real time      0.0554
    --------------------------------------------
      LOOP:  cpu time    139.7638: real time    139.7854

 eigenvalue-minimisations  :     0
 total energy-change (2. order) :-0.1057315E+01  (-0.4292027E+00)
 number of electron     457.9999261 magnetization 
 augmentation part      155.3176723 magnetization 

 DIPCOR: dipole corrections for dipol
 direction  3 min pos     1,
 dipolmoment           0.000000      0.000000      0.136140 electrons x Angstroem
 Tr[quadrupol]     -6352.026388

 energy correction for charged system         0.000000 eV
 dipol+quadrupol energy correction           -0.001103 eV
 added-field ion interaction         -1.111910 eV  (added to PSCEN)


 Free energy of the ion-electron system (eV)
  ---------------------------------------------------
  alpha Z        PSCENC =       907.10797222
  Ewald energy   TEWEN  =    137007.52336140
  -Hartree energ DENC   =   -174729.31954815
  -exchange      EXHF   =      1301.82903348
  -V(xc)+E(xc)   XCENC  =      1461.28190828
  PAW double counting   =     36052.13096313   -39725.07793935
  entropy T*S    EENTRO =        -0.00000000
  eigenvalues    EBANDS =    -10921.86564210
  atomic energy  EATOM  =     48195.69443388
  ---------------------------------------------------
  free energy    TOTEN  =      -450.69545720 eV

  energy without entropy =     -450.69545720  energy(sigma->0) =     -450.69545720
  exchange ACFDT corr.  =        -0.00000000  see jH, gK, PRB 81, 115126


--------------------------------------------------------------------------------------------------------




--------------------------------------- Iteration      1(  12)  ---------------------------------------


    POTLOK:  cpu time      0.1106: real time      0.1106
    SETDIJ:  cpu time      0.6319: real time      0.6319
    TRIAL :  cpu time     69.2190: real time     69.2244
    CORREC:  cpu time     69.7087: real time     69.7134
    CHARGE:  cpu time      0.0547: real time      0.0547
    --------------------------------------------
      LOOP:  cpu time    139.7437: real time    139.7541

 eigenvalue-minimisations  :     0
 total energy-change (2. order) :-0.4291972E+00  (-0.1782880E+00)
 number of electron     457.9999264 magnetization 
 augmentation part      155.5166119 magnetization 

 DIPCOR: dipole corrections for dipol
 direction  3 min pos     1,
 dipolmoment           0.000000      0.000000      0.152809 electrons x Angstroem
 Tr[quadrupol]     -6352.738776

 energy correction for charged system         0.000000 eV
 dipol+quadrupol energy correction           -0.001390 eV
 added-field ion interaction         -1.248054 eV  (added to PSCEN)


 Free energy of the ion-electron system (eV)
  ---------------------------------------------------
  alpha Z        PSCENC =       906.85188349
  Ewald energy   TEWEN  =    137007.52336140
  -Hartree energ DENC   =   -174731.84127982
  -exchange      EXHF   =      1301.84683945
  -V(xc)+E(xc)   XCENC  =      1461.67211402
  PAW double counting   =     36031.40521369   -39702.01451938
  entropy T*S    EENTRO =        -0.00000000
  eigenvalues    EBANDS =    -10922.26270114
  atomic energy  EATOM  =     48195.69443388
  ---------------------------------------------------
  free energy    TOTEN  =      -451.12465440 eV

  energy without entropy =     -451.12465440  energy(sigma->0) =     -451.12465440
  exchange ACFDT corr.  =         0.00000000  see jH, gK, PRB 81, 115126


[...]
    295       9.5229      0.00000
    296       9.5538      0.00000
    297       9.5930      0.00000
    298       9.6006      0.00000
    299       9.6129      0.00000
    300       9.7449      0.00000
    301       9.9432      0.00000
    302       9.9737      0.00000
    303      10.0448      0.00000
    304      10.0462      0.00000
    305      10.1797      0.00000
    306      10.2513      0.00000
    307      10.3092      0.00000
    308      10.3595      0.00000
    309      10.4195      0.00000
    310      10.4770      0.00000
    311      10.4934      0.00000
    312      10.6046      0.00000
    313      10.7245      0.00000
    314      10.7617      0.00000
    315      10.9032      0.00000
    316      10.9153      0.00000
    317      11.3339      0.00000
    318      11.3953      0.00000
    319      11.6047      0.00000
    320      11.6172      0.00000


--------------------------------------------------------------------------------------------------------


 soft charge-density along one line, spin component           1
         0         1         2         3         4         5         6         7         8         9
 total charge-density along one line

 pseudopotential strength for first ion, spin component:           1
  9.987  13.276   0.000   0.018  -0.000  -0.000  -0.058   0.000
 13.276  17.648   0.000   0.023  -0.000  -0.000  -0.076   0.000
  0.000   0.000  -4.321  -0.000   0.000   8.486   0.000  -0.000
  0.018   0.023  -0.000  -4.277   0.000   0.000   8.375  -0.000
 -0.000  -0.000   0.000   0.000  -4.321  -0.000  -0.000   8.486
 -0.000  -0.000   8.486   0.000  -0.000 -18.792  -0.000   0.000
 -0.058  -0.076   0.000   8.375  -0.000  -0.000 -18.519   0.000
  0.000   0.000  -0.000  -0.000   8.486   0.000   0.000 -18.792
 total augmentation occupancy for first ion, spin component:           1
  6.855  -3.087   0.000   2.077  -0.000   0.000   0.373   0.000
 -3.087   1.813   0.000  -1.594   0.000   0.000  -0.222   0.000
  0.000   0.000   0.805   0.000   0.000   0.059   0.000   0.000
  2.077  -1.594   0.000   2.237  -0.000   0.000   0.205  -0.000
 -0.000   0.000   0.000  -0.000   0.805   0.000   0.000   0.059
  0.000   0.000   0.059   0.000   0.000   0.004   0.000   0.000
  0.373  -0.222   0.000   0.205   0.000   0.000   0.028  -0.000
  0.000   0.000   0.000  -0.000   0.059   0.000  -0.000   0.004


------------------------ aborting loop because EDIFF is reached ----------------------------------------


    FORLOC:  cpu time      0.0462: real time      0.0462
    FORHF :  cpu time     69.0699: real time     69.0749
    FORNL :  cpu time      0.3271: real time      0.3277
    STRESS:  cpu time      0.9303: real time      0.9310
    FORCOR:  cpu time      0.1048: real time      0.1049
    OFIELD:  cpu time      0.0002: real time      0.0001

  DFT-D2 method for vdW energy calculation
  -------------------------------------------------------------------

  Parameters of vdW forcefield:
         C6(Jnm^6/mol)     R0(A)
   -----------------------------
   C        1.750          1.452
   O        0.700          1.342
   Mg       0.630          1.243
   O        0.700          1.342

  vdW correction parametrized for the method   Bn  0s

  IVDW =   1
  VDW_RADIUS =    50.000 A
  VDW_S6 =     1.050
  VDW_SR =     1.000
  VDW_D =    20.000
  LVDW_EWALD = F

  Number of pair interactions contributing to vdW energy:  768270
  Edisp (eV):   -5.16804
    FORVDW:  cpu time      0.1832: real time      0.1832

  FORCE on cell =-STRESS in cart. coord.  units (eV):
  Direction    XX          YY          ZZ          XY          YZ          ZX
  --------------------------------------------------------------------------------------
  Alpha Z   907.96410   907.96410   907.96410
  Ewald  157509.18896157509.18896************     0.00000     0.00000    -0.00000
  Hartree167971.33960167971.33960************    -0.00000    -0.00000    -0.00000
  E(xc)   -2036.48801 -2036.48801 -2038.51873    -0.00000    -0.00000     0.00000
  Local  ************************335045.93525    -0.00000    -0.00000    -0.00000
  n-local -1185.81053 -1186.27854 -1217.98711     0.00000     0.00000     0.00000
  augment   903.23609   903.23609   892.32120    -0.00000    -0.00000    -0.00000
  Kinetic  7522.65078  7524.46803  7543.97401    -0.00001     0.00000    -0.00000
  Fock    -2007.80974 -2007.89253 -2007.03234    -0.00000     0.00000     0.00000
  vdW        -7.52358    -7.52358    -6.21602     0.00000     0.00000     0.00000
  -------------------------------------------------------------------------------------
  Total     -38.79422   -38.79422   -12.24462     0.00000     0.00000    -0.00000
  in kB     -40.89644   -40.89644   -12.90814     0.00000     0.00000    -0.00000
  external pressure =      -31.57 kB  Pullay stress =        0.00 kB


 VOLUME and BASIS-vectors are now :
 -----------------------------------------------------------------------------
  energy-cutoff  :      600.00
  volume of cell :     1519.82
      direct lattice vectors                 reciprocal lattice vectors
     8.440984654  0.000000000  0.000000000     0.118469591  0.000000000  0.000000000
     0.000000000  8.440984654  0.000000000     0.000000000  0.118469591  0.000000000
     0.000000000  0.000000000 21.330738491     0.000000000  0.000000000  0.046880702

  length of vectors
     8.440984654  8.440984654 21.330738491     0.118469591  0.118469591  0.046880702


 FORCES acting on ions:
    Electron-Ion                     Ewald-Force                    Non-Local-Force
 -----------------------------------------------------------------------------------------------
   0.939E-13 0.806E-12 -.824E+03   0.622E-14 -.666E-14 0.797E+03   0.000E+00 0.000E+00 0.269E+02
   0.423E-12 0.135E-13 -.143E+04   0.266E-14 0.755E-14 0.149E+04   0.000E+00 -.132E-22 -.549E+02
   -.430E-13 -.123E+00 0.208E+04   0.560E-13 0.123E+00 -.207E+04   0.000E+00 0.104E-03 -.639E+01
   0.123E+00 0.673E-13 0.208E+04   -.123E+00 0.671E-13 -.207E+04   -.104E-03 -.265E-22 -.639E+01
   -.642E-13 0.215E-12 0.713E+03   -.150E-10 0.150E-10 -.713E+03   0.000E+00 0.000E+00 0.441E+00
   0.434E+00 -.434E+00 0.714E+03   -.429E+00 0.429E+00 -.714E+03   -.254E-02 0.254E-02 0.463E+00
   -.685E-13 -.274E+01 -.643E+03   0.157E-11 0.271E+01 0.643E+03   -.529E-22 0.196E-01 -.847E-01
   0.274E+01 -.121E-12 -.643E+03   -.271E+01 -.151E-11 0.643E+03   -.196E-01 -.265E-22 -.847E-01
   -.699E-13 -.391E-12 -.200E+04   0.444E-12 -.416E-12 0.200E+04   0.331E-23 0.000E+00 0.530E+01
   0.173E+02 -.173E+02 -.198E+04   -.174E+02 0.174E+02 0.198E+04   0.792E-01 -.792E-01 0.541E+01
   -.264E-13 0.123E+00 0.208E+04   -.277E-12 -.123E+00 -.207E+04   0.165E-22 -.104E-03 -.639E+01
   0.116E+00 0.835E-12 0.208E+04   -.114E+00 0.131E-10 -.207E+04   -.127E-02 -.132E-22 -.639E+01
   -.555E-13 0.128E-11 0.714E+03   -.165E-10 0.000E+00 -.714E+03   -.331E-23 0.000E+00 0.401E+00
   0.434E+00 0.434E+00 0.714E+03   -.429E+00 -.429E+00 -.714E+03   -.254E-02 -.254E-02 0.463E+00
   -.715E-13 0.274E+01 -.643E+03   0.304E-11 -.271E+01 0.643E+03   -.794E-22 -.196E-01 -.847E-01
   0.386E+01 0.822E-12 -.636E+03   -.378E+01 0.178E-14 0.637E+03   -.746E-01 -.993E-23 -.211E+00
   -.524E-13 0.176E-11 -.199E+04   -.355E-13 -.995E-13 0.198E+04   0.000E+00 0.000E+00 0.532E+01
   0.173E+02 0.173E+02 -.198E+04   -.174E+02 -.174E+02 0.198E+04   0.792E-01 0.792E-01 0.541E+01
   0.953E-12 -.116E+00 0.208E+04   -.129E-10 0.114E+00 -.207E+04   0.000E+00 0.127E-02 -.639E+01
   -.123E+00 0.673E-13 0.208E+04   0.123E+00 0.471E-13 -.207E+04   0.104E-03 -.331E-22 -.639E+01
   0.845E-12 -.269E-12 0.714E+03   0.145E-11 0.150E-10 -.714E+03   -.662E-23 0.000E+00 0.401E+00
   -.434E+00 -.434E+00 0.714E+03   0.429E+00 0.429E+00 -.714E+03   0.254E-02 0.254E-02 0.463E+00
   0.842E-12 -.386E+01 -.636E+03   -.141E-11 0.378E+01 0.637E+03   0.000E+00 0.746E-01 -.211E+00
   -.274E+01 -.135E-12 -.643E+03   0.271E+01 -.156E-11 0.643E+03   0.196E-01 0.265E-22 -.847E-01
   0.926E-12 0.350E-12 -.199E+04   0.782E-13 -.355E-14 0.198E+04   -.265E-22 0.331E-23 0.532E+01
   -.173E+02 -.173E+02 -.198E+04   0.174E+02 0.174E+02 0.198E+04   -.792E-01 -.792E-01 0.541E+01
   0.938E-12 0.116E+00 0.208E+04   -.131E-10 -.114E+00 -.207E+04   -.529E-22 -.127E-02 -.639E+01
   -.116E+00 0.310E-12 0.208E+04   0.114E+00 0.131E-10 -.207E+04   0.127E-02 0.000E+00 -.639E+01
   0.877E-12 0.187E-11 0.714E+03   -.782E-13 0.355E-14 -.714E+03   0.662E-23 0.000E+00 0.533E+00
   -.434E+00 0.434E+00 0.714E+03   0.429E+00 -.429E+00 -.714E+03   0.254E-02 -.254E-02 0.463E+00
   0.836E-12 0.386E+01 -.636E+03   -.284E-13 -.378E+01 0.637E+03   0.132E-22 -.746E-01 -.211E+00
   -.386E+01 -.197E-11 -.636E+03   0.378E+01 0.000E+00 0.637E+03   0.746E-01 0.000E+00 -.211E+00
   0.906E-12 0.101E-11 -.192E+04   -.426E-13 -.391E-13 0.192E+04   0.000E+00 0.000E+00 0.394E+01
   -.173E+02 0.173E+02 -.198E+04   0.174E+02 -.174E+02 0.198E+04   -.792E-01 0.792E-01 0.541E+01
   -.850E-13 -.383E+00 0.535E+03   0.409E-13 0.377E+00 -.534E+03   0.000E+00 0.777E-02 -.930E-01
   0.383E+00 -.418E-12 0.535E+03   -.377E+00 0.391E-13 -.534E+03   -.777E-02 0.000E+00 -.930E-01
   -.288E-13 0.290E-12 0.156E+04   0.853E-11 -.844E-11 -.156E+04   0.000E+00 -.149E-22 0.313E+01
   0.890E-01 -.890E-01 0.156E+04   -.882E-01 0.882E-01 -.156E+04   -.104E-02 0.104E-02 0.313E+01
   -.837E-13 -.712E+01 -.152E+04   -.871E-12 0.706E+01 0.153E+04   0.132E-22 0.544E-01 -.458E+01
   0.712E+01 -.202E-12 -.152E+04   -.706E+01 0.881E-12 0.153E+04   -.544E-01 0.000E+00 -.458E+01
   -.573E-13 -.606E-12 -.479E+03   -.853E-13 0.639E-13 0.478E+03   0.000E+00 0.662E-23 0.258E+00
   0.243E+01 -.243E+01 -.474E+03   -.242E+01 0.242E+01 0.473E+03   -.917E-02 0.917E-02 0.318E+00
   -.733E-13 0.383E+00 0.535E+03   0.142E-13 -.377E+00 -.534E+03   -.145E-22 -.777E-02 -.930E-01
   0.342E+00 0.182E-12 0.535E+03   -.370E+00 -.764E-11 -.535E+03   0.346E-01 0.000E+00 -.112E+00
   -.254E-13 0.855E-12 0.156E+04   0.845E-11 -.796E-12 -.156E+04   0.000E+00 -.114E-22 0.313E+01
   0.890E-01 0.890E-01 0.156E+04   -.882E-01 -.882E-01 -.156E+04   -.104E-02 -.104E-02 0.313E+01
   -.748E-13 0.712E+01 -.152E+04   -.774E-12 -.706E+01 0.153E+04   0.000E+00 -.544E-01 -.458E+01
   0.223E+02 0.161E-11 -.149E+04   -.220E+02 0.810E-11 0.150E+04   -.245E+00 0.265E-22 -.454E+01
   -.597E-13 0.162E-12 -.474E+03   -.741E-11 0.711E-14 0.473E+03   0.000E+00 -.132E-22 0.273E+00
   0.243E+01 0.243E+01 -.474E+03   -.242E+01 -.242E+01 0.473E+03   -.917E-02 -.917E-02 0.318E+00
   0.328E-12 -.342E+00 0.535E+03   0.764E-11 0.370E+00 -.535E+03   0.000E+00 -.346E-01 -.112E+00
   -.383E+00 -.377E-12 0.535E+03   0.377E+00 0.142E-13 -.534E+03   0.777E-02 -.132E-22 -.930E-01
   0.396E-12 -.132E-11 0.156E+04   0.845E-12 -.846E-11 -.156E+04   0.000E+00 -.132E-22 0.313E+01
   -.890E-01 -.890E-01 0.156E+04   0.882E-01 0.882E-01 -.156E+04   0.104E-02 0.104E-02 0.313E+01
   0.353E-12 -.223E+02 -.149E+04   -.816E-11 0.220E+02 0.150E+04   -.265E-22 0.245E+00 -.454E+01
   -.712E+01 -.162E-12 -.152E+04   0.706E+01 0.924E-12 0.153E+04   0.544E-01 0.529E-22 -.458E+01
   0.326E-12 -.175E-12 -.474E+03   -.711E-14 0.738E-11 0.473E+03   0.000E+00 0.414E-23 0.273E+00
   -.243E+01 -.243E+01 -.474E+03   0.242E+01 0.242E+01 0.473E+03   0.917E-02 0.917E-02 0.318E+00
   0.324E-12 0.342E+00 0.535E+03   0.763E-11 -.370E+00 -.535E+03   0.165E-22 0.346E-01 -.112E+00
   -.342E+00 0.115E-11 0.535E+03   0.370E+00 -.769E-11 -.535E+03   -.346E-01 0.265E-22 -.112E+00
   0.373E-12 0.229E-12 0.156E+04   0.824E-12 -.838E-12 -.156E+04   0.000E+00 0.000E+00 0.312E+01
   -.890E-01 0.890E-01 0.156E+04   0.882E-01 -.882E-01 -.156E+04   0.104E-02 -.104E-02 0.313E+01
   0.358E-12 0.223E+02 -.149E+04   -.820E-11 -.220E+02 0.150E+04   0.993E-23 -.245E+00 -.454E+01
   -.223E+02 -.104E-11 -.149E+04   0.220E+02 0.819E-11 0.150E+04   0.245E+00 0.132E-22 -.454E+01
   0.312E-12 0.101E-11 -.474E+03   -.497E-13 0.426E-13 0.474E+03   0.000E+00 -.165E-22 -.160E+00
   -.243E+01 0.243E+01 -.474E+03   0.242E+01 -.242E+01 0.473E+03   0.917E-02 -.917E-02 0.318E+00
 -----------------------------------------------------------------------------------------------
   0.264E-10 0.152E-10 0.536E+02   0.626E-13 -.126E-12 0.261E-11   0.260E-16 0.399E-16 -.456E+02


 POSITION                                       TOTAL-FORCE (eV/Angst)
 -----------------------------------------------------------------------------------
      4.22049      4.22049     16.37814         0.000000      0.000000      1.950658
      4.22049      4.22049     17.52496         0.000000      0.000000     -1.936916
      0.00000      6.33074      7.50000         0.000000     -0.000034      0.467605
      2.11025      0.00000      7.50000         0.000034      0.000000      0.467605
      0.00000      0.00000      9.61025         0.000000      0.000000      0.042880
      2.11025      6.33074      9.61025         0.001679     -0.001679      0.045663
      0.00000      6.33023     11.73368         0.000000     -0.001742      0.013402
      2.11076      0.00000     11.73368         0.001742      0.000000      0.013402
      0.00000      0.00000     13.83822         0.000000      0.000000     -0.084446
      2.10905      6.33193     13.83447        -0.009865      0.009865     -0.102542
      0.00000      2.11025      7.50000         0.000000      0.000034      0.467605
      2.11025      4.22049      7.50000         0.000569      0.000000      0.467983
      0.00000      4.22049      9.61025         0.000000      0.000000      0.053821
      2.11025      2.11025      9.61025         0.001679      0.001679      0.045663
      0.00000      2.11076     11.73368         0.000000      0.001742      0.013402
      2.11344      4.22049     11.73659        -0.006192      0.000000      0.025739
      0.00000      4.22049     13.83544         0.000000      0.000000     -0.093839
      2.10905      2.10905     13.83447        -0.009865     -0.009865     -0.102542
      4.22049      6.33074      7.50000         0.000000     -0.000569      0.467983
      6.33074      0.00000      7.50000        -0.000034      0.000000      0.467605
      4.22049      0.00000      9.61025         0.000000      0.000000      0.053821
      6.33074      6.33074      9.61025        -0.001679     -0.001679      0.045663
      4.22049      6.32754     11.73659         0.000000      0.006192      0.025739
      6.33023      0.00000     11.73368        -0.001742      0.000000      0.013402
      4.22049      0.00000     13.83544         0.000000      0.000000     -0.093839
      6.33193      6.33193     13.83447         0.009865      0.009865     -0.102542
      4.22049      2.11025      7.50000         0.000000      0.000569      0.467983
      6.33074      4.22049      7.50000        -0.000569      0.000000      0.467983
      4.22049      4.22049      9.61025         0.000000      0.000000      0.051156
      6.33074      2.11025      9.61025        -0.001679      0.001679      0.045663
      4.22049      2.11344     11.73659         0.000000     -0.006192      0.025739
      6.32754      4.22049     11.73659         0.006192      0.000000      0.025739
      4.22049      4.22049     13.87814         0.000000      0.000000     -0.024275
      6.33193      2.10905     13.83447         0.009865     -0.009865     -0.102542
      0.00000      6.33074      9.61025         0.000000      0.002719      0.057857
      2.11025      0.00000      9.61025        -0.002719      0.000000      0.057857
      0.00000      0.00000      7.50000         0.000000      0.000000     -0.434970
      2.11025      6.33074      7.50000        -0.000382      0.000382     -0.434704
      0.00000      6.33258     13.88587         0.000000      0.000540     -0.109650
      2.10840      0.00000     13.88587        -0.000540      0.000000     -0.109650
      0.00000      0.00000     11.72785         0.000000      0.000000      0.033770
      2.10979      6.33120     11.72890         0.001759     -0.001759      0.027469
      0.00000      2.11025      9.61025         0.000000     -0.002719      0.057857
      2.11025      4.22049      9.61025         0.010871      0.000000      0.066120
      0.00000      4.22049      7.50000         0.000000      0.000000     -0.434959
      2.11025      2.11025      7.50000        -0.000382     -0.000382     -0.434704
      0.00000      2.10840     13.88587         0.000000     -0.000540     -0.109650
      2.10031      4.22049     13.88381         0.010958      0.000000     -0.095617
      0.00000      4.22049     11.72684         0.000000      0.000000      0.029281
      2.10979      2.10979     11.72890         0.001759      0.001759      0.027469
      4.22049      6.33074      9.61025         0.000000     -0.010871      0.066120
      6.33074      0.00000      9.61025         0.002719      0.000000      0.057857
      4.22049      0.00000      7.50000         0.000000      0.000000     -0.434959
      6.33074      6.33074      7.50000         0.000382      0.000382     -0.434704
      4.22049      6.34068     13.88381         0.000000     -0.010958     -0.095617
      6.33258      0.00000     13.88587         0.000540      0.000000     -0.109650
      4.22049      0.00000     11.72684         0.000000      0.000000      0.029281
      6.33120      6.33120     11.72890        -0.001759     -0.001759      0.027469
      4.22049      2.11025      9.61025         0.000000      0.010871      0.066120
      6.33074      4.22049      9.61025        -0.010871      0.000000      0.066120
      4.22049      4.22049      7.50000         0.000000      0.000000     -0.435073
      6.33074      2.11025      7.50000         0.000382     -0.000382     -0.434704
      4.22049      2.10031     13.88381         0.000000      0.010958     -0.095617
      6.34068      4.22049     13.88381        -0.010958      0.000000     -0.095617
      4.22049      4.22049     11.73684         0.000000      0.000000      0.011310
      6.33120      2.10979     11.72890        -0.001759      0.001759      0.027469
 -----------------------------------------------------------------------------------
    total drift:                                0.000000      0.000000      0.002237


--------------------------------------------------------------------------------------------------------



  FREE ENERGIE OF THE ION-ELECTRON SYSTEM (eV)
  ---------------------------------------------------
  free  energy   TOTEN  =      -456.64635960 eV

  energy  without entropy=     -456.64635960  energy(sigma->0) =     -456.64635960



--------------------------------------------------------------------------------------------------------


    POTLOK:  cpu time      0.7569: real time      0.7570


--------------------------------------------------------------------------------------------------------


     LOOP+:  cpu time   5963.2247: real time   5964.5857
    4ORBIT:  cpu time      0.0000: real time      0.0000

 total amount of memory used by VASP MPI-rank0   185307. kBytes
=======================================================================

   base      :      30000. kBytes
   nonl-proj :      14893. kBytes
   fftplans  :       3932. kBytes
   grid      :       3944. kBytes
   one-center:         73. kBytes
   HF        :        101. kBytes
   nonlr-proj:      15027. kBytes
   wavefun   :       4746. kBytes
   fock_wrk  :     112591. kBytes

  
  
 General timing and accounting informations for this job:
 ========================================================
  
                  Total CPU time used (sec):     5993.362
                            User time (sec):     5978.244
                          System time (sec):       15.118
                         Elapsed time (sec):     6005.508
  
                   Maximum memory used (kb):      412488.
                   Average memory used (kb):          N/A
  
                          Minor page faults:       410492
                          Major page faults:           52
                 Voluntary context switches:        15533
