 vasp.6.3.0 20Jan22 (build Apr  1 2022 16:44:48) complex                         
 executed on        HPECrayEX_GCC date 2023.05.17  21:47:33
 running  512 mpi-ranks, with    1 threads/rank
 distrk:  each k-point on  256 cores,    2 groups
 distr:  one band on NCORE=   4 cores,   64 groups


--------------------------------------------------------------------------------------------------------


 INCAR:
   SYSTEM = MgO-rocksalt
   ISMEAR = 0
   SIGMA = 0.05
   EDIFF = 1E-6
   ALGO = ALL
   ISTART = 0
   IBRION = -1
   NSW = 0
   ISYM = 2
   ISIF = 2
   EDIFFG = -0.01
   DIPOL = 0.5 0.5 0.5
   IDIPOL = 3
   LDIPOL = .TRUE.
   GGA = RE
   IVDW = 13
   VDW_S8 = 1.7468
   VDW_A1 = 0.5363
   VDW_A2 = 3.0726
   ENCUT = 600
   PREC = Normal
   LASPH = .TRUE.
   LREAL = .FALSE.
   ISPIN = 1
   NELM = 200
   NELMIN = 8
   NCORE = 4
   KPAR = 2
   LWAVE = .FALSE.
   LCHARG = .FALSE.

 POTCAR:    PAW_PBE C 08Apr2002                   
 POTCAR:    PAW_PBE O 08Apr2002                   
 POTCAR:    PAW_PBE Mg_pv 13Apr2007               
 POTCAR:    PAW_PBE O 08Apr2002                   
 POTCAR:    PAW_PBE C 08Apr2002                   
   SHA256 =  253f7b50bb8d59471dbedb8285d89021f4a42ed1a2c5d38a03a736e69125dd95 C/POTCAR              
   COPYR  = (c) Copyright 08Apr2002 Georg Kresse                                                    
   COPYR  = This file is part of the software VASP. Any use, copying, and all other rights are regul
   COPYR  = If you do not have a valid VASP license, you may not use, copy or distribute this file. 
   VRHFIN =C: s2p2                                                                                  
   LEXCH  = PE                                                                                      
   EATOM  =   147.1560 eV,   10.8157 Ry                                                             
                                                                                                    
   TITEL  = PAW_PBE C 08Apr2002                                                                     
   LULTRA =        F    use ultrasoft PP ?                                                          
   IUNSCR =        1    unscreen: 0-lin 1-nonlin 2-no                                               
   RPACOR =    1.200    partial core radius                                                         
   POMASS =   12.011; ZVAL   =    4.000    mass and valenz                                          
   RCORE  =    1.500    outmost cutoff radius                                                       
   RWIGS  =    1.630; RWIGS  =    0.863    wigner-seitz radius (au A)                               
   ENMAX  =  400.000; ENMIN  =  300.000 eV                                                          
   ICORE  =        2    local potential                                                             
   LCOR   =        T    correct aug charges                                                         
   LPAW   =        T    paw PP                                                                      
   EAUG   =  644.873                                                                                
   DEXC   =    0.000                                                                                
   RMAX   =    1.529    core radius for proj-oper                                                   
   RAUG   =    1.300    factor for augmentation sphere                                              
   RDEP   =    1.501    radius for radial grids                                                     
   RDEPT  =    1.300    core radius for aug-charge                                                  
                                                                                                    
   Atomic configuration                                                                             
    4 entries                                                                                       
     n  l   j            E        occ.                                                              
     1  0  0.50      -273.3789   2.0000                                                             
     2  0  0.50       -13.7508   2.0000                                                             
     2  1  0.50        -5.2854   2.0000                                                             
     3  2  1.50        -5.4423   0.0000                                                             
   Description                                                                                      
     l       E           TYP  RCUT    TYP  RCUT                                                     
     0    -13.7508458     23  1.200                                                                 
     0     -8.2022199     23  1.200                                                                 
     1     -5.2854383     23  1.500                                                                 
     1     34.0145650     23  1.500                                                                 
     2     -5.4423304      7  1.500                                                                 
  local pseudopotential read in
  partial core-charges read in
  partial kinetic energy density read in
  atomic valenz-charges read in
  non local Contribution for L=           0  read in
    real space projection operators read in
  non local Contribution for L=           0  read in
    real space projection operators read in
  non local Contribution for L=           1  read in
    real space projection operators read in
  non local Contribution for L=           1  read in
    real space projection operators read in
    PAW grid and wavefunctions read in

   number of l-projection  operators is LMAX  =           4
   number of lm-projection operators is LMMAX =           8

 POTCAR:    PAW_PBE O 08Apr2002                   
   SHA256 =  818f92134a0a090dccd8ba1447fa70422a3b330e708bb4f08108d8ae51209ddf O/POTCAR              
   COPYR  = (c) Copyright 08Apr2002 Georg Kresse                                                    
   COPYR  = This file is part of the software VASP. Any use, copying, and all other rights are regul
   COPYR  = If you do not have a valid VASP license, you may not use, copy or distribute this file. 
   VRHFIN =O: s2p4                                                                                  
   LEXCH  = PE                                                                                      
   EATOM  =   432.3788 eV,   31.7789 Ry                                                             
                                                                                                    
   TITEL  = PAW_PBE O 08Apr2002                                                                     
   LULTRA =        F    use ultrasoft PP ?                                                          
   IUNSCR =        1    unscreen: 0-lin 1-nonlin 2-no                                               
   RPACOR =    1.200    partial core radius                                                         
   POMASS =   16.000; ZVAL   =    6.000    mass and valenz                                          
   RCORE  =    1.520    outmost cutoff radius                                                       
   RWIGS  =    1.550; RWIGS  =    0.820    wigner-seitz radius (au A)                               
   ENMAX  =  400.000; ENMIN  =  300.000 eV                                                          
   ICORE  =        2    local potential                                                             
   LCOR   =        T    correct aug charges                                                         
   LPAW   =        T    paw PP                                                                      
   EAUG   =  605.392                                                                                
   DEXC   =    0.000                                                                                
   RMAX   =    1.553    core radius for proj-oper                                                   
   RAUG   =    1.300    factor for augmentation sphere                                              
   RDEP   =    1.550    radius for radial grids                                                     
   RDEPT  =    1.329    core radius for aug-charge                                                  
                                                                                                    
   Atomic configuration                                                                             
    4 entries                                                                                       
     n  l   j            E        occ.                                                              
     1  0  0.50      -514.6923   2.0000                                                             
     2  0  0.50       -23.9615   2.0000                                                             
     2  1  0.50        -9.0305   4.0000                                                             
     3  2  1.50        -9.5241   0.0000                                                             
   Description                                                                                      
     l       E           TYP  RCUT    TYP  RCUT                                                     
     0    -23.9615318     23  1.200                                                                 
     0     -9.5240782     23  1.200                                                                 
     1     -9.0304911     23  1.520                                                                 
     1      8.1634956     23  1.520                                                                 
     2     -9.5240782      7  1.500                                                                 
  local pseudopotential read in
  partial core-charges read in
  partial kinetic energy density read in
  kinetic energy density of atom read in
  atomic valenz-charges read in
  non local Contribution for L=           0  read in
    real space projection operators read in
  non local Contribution for L=           0  read in
    real space projection operators read in
  non local Contribution for L=           1  read in
    real space projection operators read in
  non local Contribution for L=           1  read in
    real space projection operators read in
    PAW grid and wavefunctions read in

   number of l-projection  operators is LMAX  =           4
   number of lm-projection operators is LMMAX =           8

 POTCAR:    PAW_PBE Mg_pv 13Apr2007               
   SHA256 =  f474ac0dd33840b9ae76c01d57fea79fdf77cdfbb07d5ade72c65f83c709b62b Mg_pv/POTCAR          
   COPYR  = (c) Copyright 13Apr2007 Georg Kresse                                                    
   COPYR  = This file is part of the software VASP. Any use, copying, and all other rights are regul
   COPYR  = If you do not have a valid VASP license, you may not use, copy or distribute this file. 
   VRHFIN =Mg: p6s2                                                                                 
   LEXCH  = PE                                                                                      
   EATOM  =  1056.7344 eV,   77.6678 Ry                                                             
                                                                                                    
   TITEL  = PAW_PBE Mg_pv 13Apr2007                                                                 
   LULTRA =        F    use ultrasoft PP ?                                                          
   IUNSCR =        1    unscreen: 0-lin 1-nonlin 2-no                                               
   RPACOR =    1.500    partial core radius                                                         
   POMASS =   24.305; ZVAL   =    8.000    mass and valenz                                          
   RCORE  =    2.000    outmost cutoff radius                                                       
   RWIGS  =    2.000; RWIGS  =    1.058    wigner-seitz radius (au A)                               
   ENMAX  =  403.929; ENMIN  =  302.947 eV                                                          
   RCLOC  =    1.506    cutoff for local pot                                                        
   LCOR   =        T    correct aug charges                                                         
   LPAW   =        T    paw PP                                                                      
   EAUG   =  758.780                                                                                
   DEXC   =    0.000                                                                                
   RMAX   =    2.045    core radius for proj-oper                                                   
   RAUG   =    1.300    factor for augmentation sphere                                              
   RDEP   =    2.025    radius for radial grids                                                     
   RDEPT  =    1.557    core radius for aug-charge                                                  
                                                                                                    
   Atomic configuration                                                                             
    5 entries                                                                                       
     n  l   j            E        occ.                                                              
     1  0  0.50     -1259.6230   2.0000                                                             
     2  0  0.50       -79.8442   2.0000                                                             
     2  1  1.50       -46.6121   6.0000                                                             
     3  0  0.50        -4.7055   2.0000                                                             
     3  2  1.50        -1.3606   0.0000                                                             
   Description                                                                                      
     l       E           TYP  RCUT    TYP  RCUT                                                     
     1    -46.6121073     23  1.600                                                                 
     1      2.7211652     23  1.600                                                                 
     0     -4.7054661     23  2.000                                                                 
     0     61.2262170     23  2.000                                                                 
     2     -1.3605826     23  2.000                                                                 
  local pseudopotential read in
  partial core-charges read in
  partial kinetic energy density read in
  atomic valenz-charges read in
  non local Contribution for L=           1  read in
    real space projection operators read in
  non local Contribution for L=           1  read in
    real space projection operators read in
  non local Contribution for L=           0  read in
    real space projection operators read in
  non local Contribution for L=           0  read in
    real space projection operators read in
  non local Contribution for L=           2  read in
    real space projection operators read in
    PAW grid and wavefunctions read in

   number of l-projection  operators is LMAX  =           5
   number of lm-projection operators is LMMAX =          13

 POTCAR:    PAW_PBE O 08Apr2002                   
   SHA256 =  818f92134a0a090dccd8ba1447fa70422a3b330e708bb4f08108d8ae51209ddf O/POTCAR              
   COPYR  = (c) Copyright 08Apr2002 Georg Kresse                                                    
   COPYR  = This file is part of the software VASP. Any use, copying, and all other rights are regul
   COPYR  = If you do not have a valid VASP license, you may not use, copy or distribute this file. 
   VRHFIN =O: s2p4                                                                                  
   LEXCH  = PE                                                                                      
   EATOM  =   432.3788 eV,   31.7789 Ry                                                             
                                                                                                    
   TITEL  = PAW_PBE O 08Apr2002                                                                     
   LULTRA =        F    use ultrasoft PP ?                                                          
   IUNSCR =        1    unscreen: 0-lin 1-nonlin 2-no                                               
   RPACOR =    1.200    partial core radius                                                         
   POMASS =   16.000; ZVAL   =    6.000    mass and valenz                                          
   RCORE  =    1.520    outmost cutoff radius                                                       
   RWIGS  =    1.550; RWIGS  =    0.820    wigner-seitz radius (au A)                               
   ENMAX  =  400.000; ENMIN  =  300.000 eV                                                          
   ICORE  =        2    local potential                                                             
   LCOR   =        T    correct aug charges                                                         
   LPAW   =        T    paw PP                                                                      
   EAUG   =  605.392                                                                                
   DEXC   =    0.000                                                                                
   RMAX   =    1.553    core radius for proj-oper                                                   
   RAUG   =    1.300    factor for augmentation sphere                                              
   RDEP   =    1.550    radius for radial grids                                                     
   RDEPT  =    1.329    core radius for aug-charge                                                  
                                                                                                    
   Atomic configuration                                                                             
    4 entries                                                                                       
     n  l   j            E        occ.                                                              
     1  0  0.50      -514.6923   2.0000                                                             
     2  0  0.50       -23.9615   2.0000                                                             
     2  1  0.50        -9.0305   4.0000                                                             
     3  2  1.50        -9.5241   0.0000                                                             
   Description                                                                                      
     l       E           TYP  RCUT    TYP  RCUT                                                     
     0    -23.9615318     23  1.200                                                                 
     0     -9.5240782     23  1.200                                                                 
     1     -9.0304911     23  1.520                                                                 
     1      8.1634956     23  1.520                                                                 
     2     -9.5240782      7  1.500                                                                 
  local pseudopotential read in
  partial core-charges read in
  partial kinetic energy density read in
  kinetic energy density of atom read in
  atomic valenz-charges read in
  non local Contribution for L=           0  read in
    real space projection operators read in
  non local Contribution for L=           0  read in
    real space projection operators read in
  non local Contribution for L=           1  read in
    real space projection operators read in
  non local Contribution for L=           1  read in
    real space projection operators read in
    PAW grid and wavefunctions read in

   number of l-projection  operators is LMAX  =           4
   number of lm-projection operators is LMMAX =           8

 -----------------------------------------------------------------------------
|                                                                             |
|               ----> ADVICE to this user running VASP <----                  |
|                                                                             |
|     You have a (more or less) 'large supercell' and for larger cells it     |
|     might be more efficient to use real-space projection operators.         |
|     Therefore, try LREAL= Auto in the INCAR file.                           |
|     Mind: For very accurate calculation, you might also keep the            |
|     reciprocal projection scheme (i.e. LREAL=.FALSE.).                      |
|                                                                             |
 -----------------------------------------------------------------------------

 -----------------------------------------------------------------------------
|                                                                             |
|               ----> ADVICE to this user running VASP <----                  |
|                                                                             |
|     You enforced a specific xc type in the INCAR file but a different       |
|     type was found in the POTCAR file.                                      |
|     I HOPE YOU KNOW WHAT YOU ARE DOING!                                     |
|                                                                             |
 -----------------------------------------------------------------------------

  PAW_PBE C 08Apr2002                   :
 energy of atom  1       EATOM= -147.1560
 kinetic energy error for atom=    0.0057 (will be added to EATOM!!)
  PAW_PBE O 08Apr2002                   :
 energy of atom  2       EATOM= -432.3788
 kinetic energy error for atom=    0.0168 (will be added to EATOM!!)
  PAW_PBE Mg_pv 13Apr2007               :
 energy of atom  3       EATOM=-1056.7344
 kinetic energy error for atom=    0.0221 (will be added to EATOM!!)
  PAW_PBE O 08Apr2002                   :
 energy of atom  4       EATOM= -432.3788
 kinetic energy error for atom=    0.0168 (will be added to EATOM!!)


 POSCAR:  C  O Mg  O
  positions in direct lattice
  No initial velocities read in
 -----------------------------------------------------------------------------
|                                                                             |
|           W    W    AA    RRRRR   N    N  II  N    N   GGGG   !!!           |
|           W    W   A  A   R    R  NN   N  II  NN   N  G    G  !!!           |
|           W    W  A    A  R    R  N N  N  II  N N  N  G       !!!           |
|           W WW W  AAAAAA  RRRRR   N  N N  II  N  N N  G  GGG   !            |
|           WW  WW  A    A  R   R   N   NN  II  N   NN  G    G                |
|           W    W  A    A  R    R  N    N  II  N    N   GGGG   !!!           |
|                                                                             |
|     Specifying the vdW parameters                                           |
|     VDW_S8 = 1.747                                                          |
|     VDW_A1 = 0.536                                                          |
|     VDW_A2 = 3.073                                                          |
|     in the INCAR file will overwrite the defaults for revpbe. Please        |
|     make sure that is what you intended.                                    |
|                                                                             |
 -----------------------------------------------------------------------------

 exchange correlation table for  LEXCH =       40
   RHO(1)=    0.500       N(1)  =     2000
   RHO(2)=  100.500       N(2)  =     4000



--------------------------------------------------------------------------------------------------------


 ion  position               nearest neighbor table
   1  0.500  0.500  0.768-   2 1.15
   2  0.500  0.500  0.822-   1 1.15
   3  0.000  0.750  0.352-  35 2.11  37 2.11  38 2.11  45 2.11  54 2.11
   4  0.250  0.000  0.352-  36 2.11  37 2.11  38 2.11  46 2.11  53 2.11
   5  0.000  0.000  0.451-  37 2.11  36 2.11  35 2.11  43 2.11  52 2.11  41 2.12
   6  0.250  0.750  0.451-  38 2.11  36 2.11  35 2.11  44 2.11  51 2.11  42 2.12
   7  0.000  0.750  0.550-  49 2.11  42 2.11  58 2.11  41 2.11  35 2.12  39 2.15
   8  0.250  0.000  0.550-  57 2.11  50 2.11  42 2.11  41 2.11  36 2.12  40 2.15
   9  0.000  0.000  0.649-  39 2.11  40 2.11  47 2.11  56 2.11  41 2.11
  10  0.250  0.750  0.649-  42 2.11  40 2.11  39 2.11  48 2.11  55 2.11
  11  0.000  0.250  0.352-  43 2.11  37 2.11  45 2.11  46 2.11  62 2.11
  12  0.250  0.500  0.352-  44 2.11  38 2.11  45 2.11  46 2.11  61 2.11
  13  0.000  0.500  0.451-  45 2.11  43 2.11  44 2.11  35 2.11  60 2.11  49 2.12
  14  0.250  0.250  0.451-  46 2.11  43 2.11  44 2.11  36 2.11  59 2.11  50 2.12
  15  0.000  0.250  0.550-  49 2.11  50 2.11  66 2.11  41 2.11  43 2.12  47 2.15
  16  0.250  0.500  0.550-  65 2.11  50 2.11  42 2.11  49 2.11  44 2.13  48 2.15
  17  0.000  0.500  0.649-  48 2.10  64 2.10  49 2.11  47 2.11  39 2.11
  18  0.250  0.250  0.649-  50 2.11  47 2.11  40 2.11  48 2.11  63 2.11
  19  0.500  0.750  0.352-  51 2.11  38 2.11  53 2.11  54 2.11  61 2.11
  20  0.750  0.000  0.352-  52 2.11  37 2.11  53 2.11  54 2.11  62 2.11
  21  0.500  0.000  0.451-  53 2.11  51 2.11  52 2.11  36 2.11  59 2.11  57 2.12
  22  0.750  0.750  0.451-  54 2.11  51 2.11  52 2.11  35 2.11  60 2.11  58 2.12
  23  0.500  0.750  0.550-  65 2.11  58 2.11  42 2.11  57 2.11  51 2.13  55 2.15
  24  0.750  0.000  0.550-  57 2.11  58 2.11  66 2.11  41 2.11  52 2.12  56 2.15
  25  0.500  0.000  0.649-  55 2.10  63 2.10  57 2.11  40 2.11  56 2.11
  26  0.750  0.750  0.649-  58 2.11  56 2.11  39 2.11  55 2.11  64 2.11
  27  0.500  0.250  0.352-  59 2.11  53 2.11  46 2.11  61 2.11  62 2.11
  28  0.750  0.500  0.352-  60 2.11  54 2.11  45 2.11  61 2.11  62 2.11
  29  0.500  0.500  0.451-  61 2.11  51 2.11  59 2.11  60 2.11  44 2.11  65 2.13
  30  0.750  0.250  0.451-  62 2.11  52 2.11  59 2.11  60 2.11  43 2.11  66 2.12
  31  0.500  0.250  0.550-  65 2.11  50 2.11  66 2.11  57 2.11  59 2.13  63 2.15
  32  0.750  0.500  0.550-  65 2.11  58 2.11  66 2.11  49 2.11  60 2.13  64 2.15
  33  0.500  0.500  0.651-  48 2.12  55 2.12  63 2.12  64 2.12  65 2.14
  34  0.750  0.250  0.649-  66 2.11  56 2.11  47 2.11  64 2.11  63 2.11
  35  0.000  0.750  0.451-   3 2.11   5 2.11   6 2.11  13 2.11  22 2.11   7 2.12
  36  0.250  0.000  0.451-   4 2.11   5 2.11   6 2.11  14 2.11  21 2.11   8 2.12
  37  0.000  0.000  0.352-   5 2.11   4 2.11   3 2.11  11 2.11  20 2.11
  38  0.250  0.750  0.352-   6 2.11   4 2.11   3 2.11  12 2.11  19 2.11
  39  0.000  0.750  0.651-   9 2.11  10 2.11  26 2.11  17 2.11   7 2.15
  40  0.250  0.000  0.651-   9 2.11  10 2.11  18 2.11  25 2.11   8 2.15
  41  0.000  0.000  0.550-   9 2.11   8 2.11   7 2.11  15 2.11  24 2.11   5 2.12
  42  0.250  0.750  0.550-  10 2.11   8 2.11   7 2.11  16 2.11  23 2.11   6 2.12
  43  0.000  0.250  0.451-  11 2.11   5 2.11  13 2.11  14 2.11  30 2.11  15 2.12
  44  0.250  0.500  0.451-  12 2.11   6 2.11  13 2.11  14 2.11  29 2.11  16 2.13
  45  0.000  0.500  0.352-  13 2.11  11 2.11  12 2.11   3 2.11  28 2.11
  46  0.250  0.250  0.352-  14 2.11  11 2.11  12 2.11   4 2.11  27 2.11
  47  0.000  0.250  0.651-   9 2.11  18 2.11  34 2.11  17 2.11  15 2.15
  48  0.249  0.500  0.651-  17 2.10  10 2.11  18 2.11  33 2.12  16 2.15
  49  0.000  0.500  0.550-  17 2.11  15 2.11   7 2.11  16 2.11  32 2.11  13 2.12
  50  0.250  0.250  0.550-  18 2.11  15 2.11   8 2.11  16 2.11  31 2.11  14 2.12
  51  0.500  0.750  0.451-  19 2.11   6 2.11  21 2.11  22 2.11  29 2.11  23 2.13
  52  0.750  0.000  0.451-  20 2.11   5 2.11  21 2.11  22 2.11  30 2.11  24 2.12
  53  0.500  0.000  0.352-  21 2.11  19 2.11  20 2.11   4 2.11  27 2.11
  54  0.750  0.750  0.352-  22 2.11  19 2.11  20 2.11   3 2.11  28 2.11
  55  0.500  0.751  0.651-  25 2.10  10 2.11  26 2.11  33 2.12  23 2.15
  56  0.750  0.000  0.651-   9 2.11  26 2.11  34 2.11  25 2.11  24 2.15
  57  0.500  0.000  0.550-  25 2.11  24 2.11   8 2.11  23 2.11  31 2.11  21 2.12
  58  0.750  0.750  0.550-  26 2.11  24 2.11   7 2.11  32 2.11  23 2.11  22 2.12
  59  0.500  0.250  0.451-  27 2.11  21 2.11  14 2.11  29 2.11  30 2.11  31 2.13
  60  0.750  0.500  0.451-  28 2.11  22 2.11  13 2.11  29 2.11  30 2.11  32 2.13
  61  0.500  0.500  0.352-  29 2.11  19 2.11  27 2.11  28 2.11  12 2.11
  62  0.750  0.250  0.352-  30 2.11  20 2.11  27 2.11  28 2.11  11 2.11
  63  0.500  0.249  0.651-  25 2.10  18 2.11  34 2.11  33 2.12  31 2.15
  64  0.751  0.500  0.651-  17 2.10  26 2.11  34 2.11  33 2.12  32 2.15
  65  0.500  0.500  0.550-  16 2.11  23 2.11  31 2.11  32 2.11  29 2.13  33 2.14
  66  0.750  0.250  0.550-  34 2.11  24 2.11  15 2.11  32 2.11  31 2.11  30 2.12

  LATTYP: Found a simple tetragonal cell.
 ALAT       =     8.4409846542
 C/A-ratio  =     2.5270438657
  
  Lattice vectors:
  
 A1 = (   8.4409846542,   0.0000000000,   0.0000000000)
 A2 = (   0.0000000000,   8.4409846542,   0.0000000000)
 A3 = (   0.0000000000,   0.0000000000,  21.3307384906)


Analysis of symmetry for initial positions (statically):
=====================================================================
 Subroutine PRICEL returns:
 Original cell was already a primitive cell.
 

 Routine SETGRP: Setting up the symmetry group for a 
 simple tetragonal supercell.


 Subroutine GETGRP returns: Found  8 space group operations
 (whereof  8 operations were pure point group operations)
 out of a pool of 16 trial point group operations.


The static configuration has the point symmetry C_4v.


Analysis of symmetry for dynamics (positions and initial velocities):
=====================================================================
 Subroutine PRICEL returns:
 Original cell was already a primitive cell.
 

 Routine SETGRP: Setting up the symmetry group for a 
 simple tetragonal supercell.


 Subroutine GETGRP returns: Found  8 space group operations
 (whereof  8 operations were pure point group operations)
 out of a pool of 16 trial point group operations.


The dynamic configuration has the point symmetry C_4v.


 Subroutine INISYM returns: Found  8 space group operations
 (whereof  8 operations are pure point group operations),
 and found     1 'primitive' translations


----------------------------------------------------------------------------------------

                                     Primitive cell                                     

  volume of cell :    1519.8199

  direct lattice vectors                    reciprocal lattice vectors
     8.440984654  0.000000000  0.000000000     0.118469591  0.000000000  0.000000000
     0.000000000  8.440984654  0.000000000     0.000000000  0.118469591  0.000000000
     0.000000000  0.000000000 21.330738491     0.000000000  0.000000000  0.046880702

  length of vectors
     8.440984654  8.440984654 21.330738491     0.118469591  0.118469591  0.046880702

  position of ions in fractional coordinates (direct lattice)
     0.500000000  0.500000000  0.768287523
     0.500000000  0.500000000  0.822051241
     0.000000000  0.750000000  0.351605267
     0.250000000  0.000000000  0.351605267
     0.000000000  0.000000000  0.450535089
     0.250000000  0.750000000  0.450535089
     0.000000000  0.749939268  0.550083239
     0.250060732  0.000000000  0.550083239
     0.000000000  0.000000000  0.648745309
     0.249858327  0.750141673  0.648569547
     0.000000000  0.250000000  0.351605267
     0.250000000  0.500000000  0.351605267
     0.000000000  0.500000000  0.450535089
     0.250000000  0.250000000  0.450535089
     0.000000000  0.250060732  0.550083239
     0.250378379  0.500000000  0.550219524
     0.000000000  0.500000000  0.648615280
     0.249858327  0.249858327  0.648569547
     0.500000000  0.750000000  0.351605267
     0.750000000  0.000000000  0.351605267
     0.500000000  0.000000000  0.450535089
     0.750000000  0.750000000  0.450535089
     0.500000000  0.749621621  0.550219524
     0.749939268  0.000000000  0.550083239
     0.500000000  0.000000000  0.648615280
     0.750141673  0.750141673  0.648569547
     0.500000000  0.250000000  0.351605267
     0.750000000  0.500000000  0.351605267
     0.500000000  0.500000000  0.450535089
     0.750000000  0.250000000  0.450535089
     0.500000000  0.250378379  0.550219524
     0.749621621  0.500000000  0.550219524
     0.500000000  0.500000000  0.650616960
     0.750141673  0.249858327  0.648569547
     0.000000000  0.750000000  0.450535089
     0.250000000  0.000000000  0.450535089
     0.000000000  0.000000000  0.351605267
     0.250000000  0.750000000  0.351605267
     0.000000000  0.750218533  0.650979255
     0.249781467  0.000000000  0.650979255
     0.000000000  0.000000000  0.549809890
     0.249945770  0.750054230  0.549859113
     0.000000000  0.250000000  0.450535089
     0.250000000  0.500000000  0.450535089
     0.000000000  0.500000000  0.351605267
     0.250000000  0.250000000  0.351605267
     0.000000000  0.249781467  0.650979255
     0.248822710  0.500000000  0.650882872
     0.000000000  0.500000000  0.549762666
     0.249945770  0.249945770  0.549859113
     0.500000000  0.750000000  0.450535089
     0.750000000  0.000000000  0.450535089
     0.500000000  0.000000000  0.351605267
     0.750000000  0.750000000  0.351605267
     0.500000000  0.751177290  0.650882872
     0.750218533  0.000000000  0.650979255
     0.500000000  0.000000000  0.549762666
     0.750054230  0.750054230  0.549859113
     0.500000000  0.250000000  0.450535089
     0.750000000  0.500000000  0.450535089
     0.500000000  0.500000000  0.351605267
     0.750000000  0.250000000  0.351605267
     0.500000000  0.248822710  0.650882872
     0.751177290  0.500000000  0.650882872
     0.500000000  0.500000000  0.550231357
     0.750054230  0.249945770  0.549859113

  ion indices of the primitive-cell ions
   primitive index   ion index
                 1           1
                 2           2
                 3           3
                 4           4
                 5           5
                 6           6
                 7           7
                 8           8
                 9           9
                10          10
                11          11
                12          12
                13          13
                14          14
                15          15
                16          16
                17          17
                18          18
                19          19
                20          20
                21          21
                22          22
                23          23
                24          24
                25          25
                26          26
                27          27
                28          28
                29          29
                30          30
                31          31
                32          32
                33          33
                34          34
                35          35
                36          36
                37          37
                38          38
                39          39
                40          40
                41          41
                42          42
                43          43
                44          44
                45          45
                46          46
                47          47
                48          48
                49          49
                50          50
                51          51
                52          52
                53          53
                54          54
                55          55
                56          56
                57          57
                58          58
                59          59
                60          60
                61          61
                62          62
                63          63
                64          64
                65          65
                66          66

----------------------------------------------------------------------------------------



 KPOINTS: pymatgen v2020.8.13 with grid density = 

Automatic generation of k-mesh.
 Grid dimensions read from file:
 generate k-points for:    2    2    1

 Generating k-lattice:

  Cartesian coordinates                     Fractional coordinates (reciprocal lattice)
     0.059234796  0.000000000  0.000000000     0.500000000  0.000000000  0.000000000
     0.000000000  0.059234796  0.000000000     0.000000000  0.500000000  0.000000000
     0.000000000  0.000000000  0.046880702     0.000000000  0.000000000  1.000000000

  Length of vectors
     0.059234796  0.059234796  0.046880702

  Shift w.r.t. Gamma in fractional coordinates (k-lattice)
     0.000000000  0.000000000  0.000000000

 
 Subroutine IBZKPT returns following result:
 ===========================================
 
 Found      3 irreducible k-points:
 
 Following reciprocal coordinates:
            Coordinates               Weight
  0.000000  0.000000  0.000000      1.000000
  0.500000  0.000000  0.000000      2.000000
  0.500000  0.500000  0.000000      1.000000
 
 Following cartesian coordinates:
            Coordinates               Weight
  0.000000  0.000000  0.000000      1.000000
  0.059235  0.000000  0.000000      2.000000
  0.059235  0.059235  0.000000      1.000000
 


--------------------------------------------------------------------------------------------------------




 Dimension of arrays:
   k-points           NKPTS =      3   k-points in BZ     NKDIM =      3   number of bands    NBANDS=    320
   number of dos      NEDOS =    301   number of ions     NIONS =     66
   non local maximal  LDIM  =      5   non local SUM 2l+1 LMDIM =     13
   total plane-waves  NPLWV = 373248
   max r-space proj   IRMAX =      1   max aug-charges    IRDMAX=   5039
   dimension x,y,z NGX =    54 NGY =   54 NGZ =  128
   dimension x,y,z NGXF=   108 NGYF=  108 NGZF=  256
   support grid    NGXF=   108 NGYF=  108 NGZF=  256
   ions per type =               1   1  32  32
   NGX,Y,Z   is equivalent  to a cutoff of  10.64, 10.64,  9.98 a.u.
   NGXF,Y,Z  is equivalent  to a cutoff of  21.27, 21.27, 19.95 a.u.

 SYSTEM =  MgO-rocksalt                            
 POSCAR =   C  O Mg  O                             

 Startparameter for this run:
   NWRITE =      2    write-flag & timer
   PREC   = normal    normal or accurate (medium, high low for compatibility)
   ISTART =      0    job   : 0-new  1-cont  2-samecut
   ICHARG =      2    charge: 1-file 2-atom 10-const
   ISPIN  =      1    spin polarized calculation?
   LNONCOLLINEAR =      F non collinear calculations
   LSORBIT =      F    spin-orbit coupling
   INIWAV =      1    electr: 0-lowe 1-rand  2-diag
   LASPH  =      T    aspherical Exc in radial PAW
 Electronic Relaxation 1
   ENCUT  =  600.0 eV  44.10 Ry    6.64 a.u.  16.86 16.86 42.60*2*pi/ulx,y,z
   ENINI  =  600.0     initial cutoff
   ENAUG  =  758.8 eV  augmentation charge cutoff
   NELM   =    200;   NELMIN=  8; NELMDL= -5     # of ELM steps 
   EDIFF  = 0.1E-05   stopping-criterion for ELM
   LREAL  =      F    real-space projection
   NLSPLINE    = F    spline interpolate recip. space projectors
   LCOMPAT=      F    compatible to vasp.4.4
   GGA_COMPAT  = T    GGA compatible to vasp.4.4-vasp.4.6
   LMAXPAW     = -100 max onsite density
   LMAXMIX     =    2 max onsite mixed and CHGCAR
   VOSKOWN=      0    Vosko Wilk Nusair interpolation
   ROPT   =    0.00000   0.00000   0.00000   0.00000
 Ionic relaxation
   EDIFFG = -.1E-01   stopping-criterion for IOM
   NSW    =      0    number of steps for IOM
   NBLOCK =      1;   KBLOCK =      1    inner block; outer block 
   IBRION =     -1    ionic relax: 0-MD 1-quasi-New 2-CG
   NFREE  =      0    steps in history (QN), initial steepest desc. (CG)
   ISIF   =      2    stress and relaxation
   IWAVPR =     10    prediction:  0-non 1-charg 2-wave 3-comb
   ISYM   =      2    0-nonsym 1-usesym 2-fastsym
   LCORR  =      T    Harris-Foulkes like correction to forces

   POTIM  = 0.5000    time-step for ionic-motion
   TEIN   =    0.0    initial temperature
   TEBEG  =    0.0;   TEEND  =   0.0 temperature during run
   SMASS  =  -3.00    Nose mass-parameter (am)
   estimated Nose-frequenzy (Omega)   =  0.10E-29 period in steps = 0.13E+47 mass=  -0.163E-26a.u.
   SCALEE = 1.0000    scale energy and forces
   NPACO  =    256;   APACO  = 10.0  distance and # of slots for P.C.
   PSTRESS=    0.0 pullay stress

  Mass of Ions in am
   POMASS =  12.01 16.00 24.30 16.00
  Ionic Valenz
   ZVAL   =   4.00  6.00  8.00  6.00
  Atomic Wigner-Seitz radii
   RWIGS  =  -1.00 -1.00 -1.00 -1.00
  virtual crystal weights 
   VCA    =   1.00  1.00  1.00  1.00
   NELECT =     458.0000    total number of electrons
   NUPDOWN=      -1.0000    fix difference up-down

 DOS related values:
   EMIN   =  10.00;   EMAX   =-10.00  energy-range for DOS
   EFERMI =   0.00
   ISMEAR =     0;   SIGMA  =   0.05  broadening in eV -4-tet -1-fermi 0-gaus

 Electronic relaxation 2 (details)
   IALGO  =     58    algorithm
   LDIAG  =      T    sub-space diagonalisation (order eigenvalues)
   LSUBROT=      F    optimize rotation matrix (better conditioning)
   TURBO    =      0    0=normal 1=particle mesh
   IRESTART =      0    0=no restart 2=restart with 2 vectors
   NREBOOT  =      0    no. of reboots
   NMIN     =      0    reboot dimension
   EREF     =   0.00    reference energy to select bands
   IMIX   =      4    mixing-type and parameters
     AMIX     =   0.40;   BMIX     =  1.00
     AMIX_MAG =   1.60;   BMIX_MAG =  1.00
     AMIN     =   0.10
     WC   =   100.;   INIMIX=   1;  MIXPRE=   1;  MAXMIX= -45

 Intra band minimization:
   WEIMIN = 0.0000     energy-eigenvalue tresh-hold
   EBREAK =  0.78E-09  absolut break condition
   DEPER  =   0.30     relativ break condition  

   TIME   =   0.40     timestep for ELM

  volume/ion in A,a.u.               =      23.03       155.40
  Fermi-wavevector in a.u.,A,eV,Ry     =   1.097571  2.074108 16.390423  1.204662
  Thomas-Fermi vector in A             =   2.233933

 Write flags
   LWAVE        =      F    write WAVECAR
   LDOWNSAMPLE  =      F    k-point downsampling of WAVECAR
   LCHARG       =      F    write CHGCAR
   LVTOT        =      F    write LOCPOT, total local potential
   LVHAR        =      F    write LOCPOT, Hartree potential only
   LELF         =      F    write electronic localiz. function (ELF)
   LORBIT       =      0    0 simple, 1 ext, 2 COOP (PROOUT), +10 PAW based schemes


 Dipole corrections
   LMONO  =      F    monopole corrections only (constant potential shift)
   LDIPOL =      T    correct potential (dipole corrections)
   IDIPOL =      3    1-x, 2-y, 3-z, 4-all directions 
   EPSILON=  1.0000000 bulk dielectric constant

 Exchange correlation treatment:
   GGA     =    RE    GGA type
   LEXCH   =    40    internal setting for exchange type
   LIBXC   =     F    Libxc                    
   VOSKOWN =     0    Vosko Wilk Nusair interpolation
   LHFCALC =     F    Hartree Fock is set to
   LHFONE  =     F    Hartree Fock one center treatment
   AEXX    =    0.0000 exact exchange contribution

 Linear response parameters
   LEPSILON=     F    determine dielectric tensor
   LRPA    =     F    only Hartree local field effects (RPA)
   LNABLA  =     F    use nabla operator in PAW spheres
   LVEL    =     F    velocity operator in full k-point grid
   CSHIFT  =0.1000    complex shift for real part using Kramers Kronig
   OMEGAMAX=  -1.0    maximum frequency
   DEG_THRESHOLD= 0.2000000E-02 threshold for treating states as degnerate
   RTIME   =   -0.100 relaxation time in fs
  (WPLASMAI=    0.000 imaginary part of plasma frequency in eV, 0.658/RTIME)
   DFIELD  = 0.0000000 0.0000000 0.0000000 field for delta impulse in time

  Optional k-point grid parameters
   LKPOINTS_OPT  =     F    use optional k-point grid
   KPOINTS_OPT_MODE=     1    mode for optional k-point grid

 Orbital magnetization related:
   ORBITALMAG=     F  switch on orbital magnetization
   LCHIMAG   =     F  perturbation theory with respect to B field
   DQ        =  0.001000  dq finite difference perturbation B field
   LLRAUG    =     F  two centre corrections for induced B field



--------------------------------------------------------------------------------------------------------


 Static calculation
 charge density and potential will be updated during run
 non-spin polarized calculation
 Conjugate gradient for all bands (Freysoldt, et al. PRB 79, 241103 (2009))
 preconditioned conjugated gradient                                        
 perform sub-space diagonalisation
    before iterative eigenvector-optimisation
 modified Broyden-mixing scheme, WC =      100.0
 initial mixing is a Kerker type mixing with AMIX =  0.4000 and BMIX =      1.0000
 Hartree-type preconditioning will be used
 using additional bands           91
 reciprocal scheme for non local part
 use partial core corrections
 no Harris-corrections to forces 
 use gradient corrections 
 use of overlap-Matrix (Vanderbilt PP)
 Gauss-broadening in eV      SIGMA  =   0.05


--------------------------------------------------------------------------------------------------------


  energy-cutoff  :      600.00
  volume of cell :     1519.82
      direct lattice vectors                 reciprocal lattice vectors
     8.440984654  0.000000000  0.000000000     0.118469591  0.000000000  0.000000000
     0.000000000  8.440984654  0.000000000     0.000000000  0.118469591  0.000000000
     0.000000000  0.000000000 21.330738491     0.000000000  0.000000000  0.046880702

  length of vectors
     8.440984654  8.440984654 21.330738491     0.118469591  0.118469591  0.046880702



 k-points in units of 2pi/SCALE and weight: pymatgen v2020.8.13 with grid density = 
   0.00000000  0.00000000  0.00000000       0.250
   0.05923480  0.00000000  0.00000000       0.500
   0.05923480  0.05923480  0.00000000       0.250

 k-points in reciprocal lattice and weights: pymatgen v2020.8.13 with grid density = 
   0.00000000  0.00000000  0.00000000       0.250
   0.50000000  0.00000000  0.00000000       0.500
   0.50000000  0.50000000  0.00000000       0.250

 position of ions in fractional coordinates (direct lattice) 
   0.50000000  0.50000000  0.76828752
   0.50000000  0.50000000  0.82205124
   0.00000000  0.75000000  0.35160527
   0.25000000  0.00000000  0.35160527
   0.00000000  0.00000000  0.45053509
   0.25000000  0.75000000  0.45053509
   0.00000000  0.74993927  0.55008324
   0.25006073  0.00000000  0.55008324
   0.00000000  0.00000000  0.64874531
   0.24985833  0.75014167  0.64856955
   0.00000000  0.25000000  0.35160527
   0.25000000  0.50000000  0.35160527
   0.00000000  0.50000000  0.45053509
   0.25000000  0.25000000  0.45053509
   0.00000000  0.25006073  0.55008324
   0.25037838  0.50000000  0.55021952
   0.00000000  0.50000000  0.64861528
   0.24985833  0.24985833  0.64856955
   0.50000000  0.75000000  0.35160527
   0.75000000  0.00000000  0.35160527
   0.50000000  0.00000000  0.45053509
   0.75000000  0.75000000  0.45053509
   0.50000000  0.74962162  0.55021952
   0.74993927  0.00000000  0.55008324
   0.50000000  0.00000000  0.64861528
   0.75014167  0.75014167  0.64856955
   0.50000000  0.25000000  0.35160527
   0.75000000  0.50000000  0.35160527
   0.50000000  0.50000000  0.45053509
   0.75000000  0.25000000  0.45053509
   0.50000000  0.25037838  0.55021952
   0.74962162  0.50000000  0.55021952
   0.50000000  0.50000000  0.65061696
   0.75014167  0.24985833  0.64856955
   0.00000000  0.75000000  0.45053509
   0.25000000  0.00000000  0.45053509
   0.00000000  0.00000000  0.35160527
   0.25000000  0.75000000  0.35160527
   0.00000000  0.75021853  0.65097926
   0.24978147  0.00000000  0.65097926
   0.00000000  0.00000000  0.54980989
   0.24994577  0.75005423  0.54985911
   0.00000000  0.25000000  0.45053509
   0.25000000  0.50000000  0.45053509
   0.00000000  0.50000000  0.35160527
   0.25000000  0.25000000  0.35160527
   0.00000000  0.24978147  0.65097926
   0.24882271  0.50000000  0.65088287
   0.00000000  0.50000000  0.54976267
   0.24994577  0.24994577  0.54985911
   0.50000000  0.75000000  0.45053509
   0.75000000  0.00000000  0.45053509
   0.50000000  0.00000000  0.35160527
   0.75000000  0.75000000  0.35160527
   0.50000000  0.75117729  0.65088287
   0.75021853  0.00000000  0.65097926
   0.50000000  0.00000000  0.54976267
   0.75005423  0.75005423  0.54985911
   0.50000000  0.25000000  0.45053509
   0.75000000  0.50000000  0.45053509
   0.50000000  0.50000000  0.35160527
   0.75000000  0.25000000  0.35160527
   0.50000000  0.24882271  0.65088287
   0.75117729  0.50000000  0.65088287
   0.50000000  0.50000000  0.55023136
   0.75005423  0.24994577  0.54985911

 position of ions in cartesian coordinates  (Angst):
   4.22049233  4.22049233 16.38814023
   4.22049233  4.22049233 17.53496005
   0.00000000  6.33073849  7.50000000
   2.11024616  0.00000000  7.50000000
   0.00000000  0.00000000  9.61024616
   2.11024616  6.33073849  9.61024616
   0.00000000  6.33022585 11.73368172
   2.11075880  0.00000000 11.73368172
   0.00000000  0.00000000 13.83821654
   2.10905031  6.33193435 13.83446740
   0.00000000  2.11024616  7.50000000
   2.11024616  4.22049233  7.50000000
   0.00000000  4.22049233  9.61024616
   2.11024616  2.11024616  9.61024616
   0.00000000  2.11075880 11.73368172
   2.11344006  4.22049233 11.73658877
   0.00000000  4.22049233 13.83544293
   2.10905031  2.10905031 13.83446740
   4.22049233  6.33073849  7.50000000
   6.33073849  0.00000000  7.50000000
   4.22049233  0.00000000  9.61024616
   6.33073849  6.33073849  9.61024616
   4.22049233  6.32754460 11.73658877
   6.33022585  0.00000000 11.73368172
   4.22049233  0.00000000 13.83544293
   6.33193435  6.33193435 13.83446740
   4.22049233  2.11024616  7.50000000
   6.33073849  4.22049233  7.50000000
   4.22049233  4.22049233  9.61024616
   6.33073849  2.11024616  9.61024616
   4.22049233  2.11344006 11.73658877
   6.32754460  4.22049233 11.73658877
   4.22049233  4.22049233 13.87814023
   6.33193435  2.10905031 13.83446740
   0.00000000  6.33073849  9.61024616
   2.11024616  0.00000000  9.61024616
   0.00000000  0.00000000  7.50000000
   2.11024616  6.33073849  7.50000000
   0.00000000  6.33258312 13.88586825
   2.10840153  0.00000000 13.88586825
   0.00000000  0.00000000 11.72785099
   2.10978841  6.33119624 11.72890095
   0.00000000  2.11024616  9.61024616
   2.11024616  4.22049233  9.61024616
   0.00000000  4.22049233  7.50000000
   2.11024616  2.11024616  7.50000000
   0.00000000  2.10840153 13.88586825
   2.10030867  4.22049233 13.88381232
   0.00000000  4.22049233 11.72684365
   2.10978841  2.10978841 11.72890095
   4.22049233  6.33073849  9.61024616
   6.33073849  0.00000000  9.61024616
   4.22049233  0.00000000  7.50000000
   6.33073849  6.33073849  7.50000000
   4.22049233  6.34067598 13.88381232
   6.33258312  0.00000000 13.88586825
   4.22049233  0.00000000 11.72684365
   6.33119624  6.33119624 11.72890095
   4.22049233  2.11024616  9.61024616
   6.33073849  4.22049233  9.61024616
   4.22049233  4.22049233  7.50000000
   6.33073849  2.11024616  7.50000000
   4.22049233  2.10030867 13.88381232
   6.34067598  4.22049233 13.88381232
   4.22049233  4.22049233 11.73684118
   6.33119624  2.10978841 11.72890095



--------------------------------------------------------------------------------------------------------


 k-point   1 :   0.0000 0.0000 0.0000  plane waves:   50745
 k-point   2 :   0.5000 0.0000 0.0000  plane waves:   50798
 k-point   3 :   0.5000 0.5000 0.0000  plane waves:   50752

 maximum and minimum number of plane-waves per node :     12720    12632

 maximum number of plane-waves:     50798
 maximum index in each direction: 
   IXMAX=   16   IYMAX=   16   IZMAX=   42
   IXMIN=  -17   IYMIN=  -17   IZMIN=  -42


 parallel 3D FFT for wavefunctions:
    minimum data exchange during FFTs selected (reduces bandwidth)
 parallel 3D FFT for charge:
    minimum data exchange during FFTs selected (reduces bandwidth)


 total amount of memory used by VASP MPI-rank0    78528. kBytes
=======================================================================

   base      :      30000. kBytes
   nonl-proj :      29343. kBytes
   fftplans  :       3857. kBytes
   grid      :       5885. kBytes
   one-center:        137. kBytes
   wavefun   :       9306. kBytes

     INWAV:  cpu time      0.0001: real time      0.0004
 Broyden mixing: mesh for mixing (old mesh)
   NGX = 33   NGY = 33   NGZ = 85
  (NGX  =108   NGY  =108   NGZ  =256)
  gives a total of  92565 points

 initial charge density was supplied:
 charge density of overlapping atoms calculated
 number of electron     458.0000000 magnetization 
 keeping initial charge density in first step


--------------------------------------------------------------------------------------------------------


 Maximum index for augmentation-charges          334 (set IRDMAX)


--------------------------------------------------------------------------------------------------------


 First call to EWALD:  gamma=   0.154
 Maximum number of real-space cells 4x 4x 2
 Maximum number of reciprocal cells 2x 2x 5

    FEWALD:  cpu time      0.0031: real time      0.0031


--------------------------------------- Iteration      1(   1)  ---------------------------------------


    POTLOK:  cpu time      0.0444: real time      0.0455
    SETDIJ:  cpu time      0.1567: real time      0.1569
    TRIAL :  cpu time      5.3714: real time      5.4684
    CORREC:  cpu time      0.0012: real time      0.0012
    --------------------------------------------
      LOOP:  cpu time      5.5754: real time      5.7076

 eigenvalue-minimisations  :  2304
 total energy-change (2. order) : 0.4173516E+04  (-0.3066580E+05)
 number of electron     458.0000000 magnetization 
 augmentation part      458.0000000 magnetization 

 DIPCOR: dipole corrections for dipol
 direction  3 min pos     1,
 dipolmoment           0.000000      0.000000     -0.000303 electrons x Angstroem
 Tr[quadrupol]     -6318.707669

 energy correction for charged system         0.000000 eV
 dipol+quadrupol energy correction           -0.000000 eV
 added-field ion interaction          0.002478 eV  (added to PSCEN)


 Free energy of the ion-electron system (eV)
  ---------------------------------------------------
  alpha Z        PSCENC =       907.96658212
  Ewald energy   TEWEN  =    136984.70187435
  -Hartree energ DENC   =   -173083.96327907
  -exchange      EXHF   =         0.00000000
  -V(xc)+E(xc)   XCENC  =      1766.54095113
  PAW double counting   =     32340.89285313   -36127.75492224
  entropy T*S    EENTRO =        -0.02457521
  eigenvalues    EBANDS =     -6811.41882882
  atomic energy  EATOM  =     48196.57542979
  ---------------------------------------------------
  free energy    TOTEN  =      4173.51608517 eV

  energy without entropy =     4173.54066039  energy(sigma->0) =     4173.52837278


--------------------------------------------------------------------------------------------------------




--------------------------------------- Iteration      1(   2)  ---------------------------------------


    TRIAL :  cpu time      2.2500: real time      2.2503
    CORREC:  cpu time      0.0003: real time      0.0003
    --------------------------------------------
      LOOP:  cpu time      2.2553: real time      2.2646

 eigenvalue-minimisations  :  2304
 total energy-change (2. order) :-0.4288909E+04  (-0.4215282E+04)
 number of electron     458.0000000 magnetization 
 augmentation part      458.0000000 magnetization 

 DIPCOR: dipole corrections for dipol
 direction  3 min pos     1,
 dipolmoment           0.000000      0.000000     -0.000303 electrons x Angstroem
 Tr[quadrupol]     -6318.707669

 energy correction for charged system         0.000000 eV
 dipol+quadrupol energy correction           -0.000000 eV
 added-field ion interaction          0.002478 eV  (added to PSCEN)


 Free energy of the ion-electron system (eV)
  ---------------------------------------------------
  alpha Z        PSCENC =       907.96658212
  Ewald energy   TEWEN  =    136984.70187435
  -Hartree energ DENC   =   -173083.96327907
  -exchange      EXHF   =         0.00000000
  -V(xc)+E(xc)   XCENC  =      1766.54095113
  PAW double counting   =     32340.89285313   -36127.75492224
  entropy T*S    EENTRO =        -0.00000000
  eigenvalues    EBANDS =    -11100.35279459
  atomic energy  EATOM  =     48196.57542979
  ---------------------------------------------------
  free energy    TOTEN  =      -115.39330538 eV

  energy without entropy =     -115.39330538  energy(sigma->0) =     -115.39330538


--------------------------------------------------------------------------------------------------------




--------------------------------------- Iteration      1(   3)  ---------------------------------------


    TRIAL :  cpu time      2.3575: real time      2.3578
    CORREC:  cpu time      0.0003: real time      0.0003
    --------------------------------------------
      LOOP:  cpu time      2.3625: real time      2.3727

 eigenvalue-minimisations  :  2304
 total energy-change (2. order) :-0.3107455E+03  (-0.3087009E+03)
 number of electron     458.0000000 magnetization 
 augmentation part      458.0000000 magnetization 

 DIPCOR: dipole corrections for dipol
 direction  3 min pos     1,
 dipolmoment           0.000000      0.000000     -0.000303 electrons x Angstroem
 Tr[quadrupol]     -6318.707669

 energy correction for charged system         0.000000 eV
 dipol+quadrupol energy correction           -0.000000 eV
 added-field ion interaction          0.002478 eV  (added to PSCEN)


 Free energy of the ion-electron system (eV)
  ---------------------------------------------------
  alpha Z        PSCENC =       907.96658212
  Ewald energy   TEWEN  =    136984.70187435
  -Hartree energ DENC   =   -173083.96327907
  -exchange      EXHF   =         0.00000000
  -V(xc)+E(xc)   XCENC  =      1766.54095113
  PAW double counting   =     32340.89285313   -36127.75492224
  entropy T*S    EENTRO =        -0.00000000
  eigenvalues    EBANDS =    -11411.09831997
  atomic energy  EATOM  =     48196.57542979
  ---------------------------------------------------
  free energy    TOTEN  =      -426.13883076 eV

  energy without entropy =     -426.13883076  energy(sigma->0) =     -426.13883076


--------------------------------------------------------------------------------------------------------




--------------------------------------- Iteration      1(   4)  ---------------------------------------


    TRIAL :  cpu time      2.3636: real time      2.3639
    CORREC:  cpu time      0.0003: real time      0.0003
    --------------------------------------------
      LOOP:  cpu time      2.3780: real time      2.3784

 eigenvalue-minimisations  :  2368
 total energy-change (2. order) :-0.5967140E+01  (-0.5960204E+01)
 number of electron     458.0000000 magnetization 
 augmentation part      458.0000000 magnetization 

 DIPCOR: dipole corrections for dipol
 direction  3 min pos     1,
 dipolmoment           0.000000      0.000000     -0.000303 electrons x Angstroem
 Tr[quadrupol]     -6318.707669

 energy correction for charged system         0.000000 eV
 dipol+quadrupol energy correction           -0.000000 eV
 added-field ion interaction          0.002478 eV  (added to PSCEN)


 Free energy of the ion-electron system (eV)
  ---------------------------------------------------
  alpha Z        PSCENC =       907.96658212
  Ewald energy   TEWEN  =    136984.70187435
  -Hartree energ DENC   =   -173083.96327907
  -exchange      EXHF   =         0.00000000
  -V(xc)+E(xc)   XCENC  =      1766.54095113
  PAW double counting   =     32340.89285313   -36127.75492224
  entropy T*S    EENTRO =        -0.00000000
  eigenvalues    EBANDS =    -11417.06545978
  atomic energy  EATOM  =     48196.57542979
  ---------------------------------------------------
  free energy    TOTEN  =      -432.10597057 eV

  energy without entropy =     -432.10597057  energy(sigma->0) =     -432.10597057


--------------------------------------------------------------------------------------------------------




--------------------------------------- Iteration      1(   5)  ---------------------------------------


    TRIAL :  cpu time      2.3803: real time      2.3805
    CORREC:  cpu time      0.0003: real time      0.0003
    CHARGE:  cpu time      0.0742: real time      0.0748
    --------------------------------------------
      LOOP:  cpu time      2.4599: real time      2.4696

 eigenvalue-minimisations  :  2304
 total energy-change (2. order) :-0.7705060E-01  (-0.7704790E-01)
 number of electron     457.9999390 magnetization 
 augmentation part      159.7018112 magnetization 

 DIPCOR: dipole corrections for dipol
 direction  3 min pos     1,
 dipolmoment           0.000000      0.000000     -0.000303 electrons x Angstroem
 Tr[quadrupol]     -6318.707669

 energy correction for charged system         0.000000 eV
 dipol+quadrupol energy correction           -0.000000 eV
 added-field ion interaction          0.002478 eV  (added to PSCEN)


 Free energy of the ion-electron system (eV)
  ---------------------------------------------------
  alpha Z        PSCENC =       907.96658212
  Ewald energy   TEWEN  =    136984.70187435
  -Hartree energ DENC   =   -173083.96327907
  -exchange      EXHF   =         0.00000000
  -V(xc)+E(xc)   XCENC  =      1766.54095113
  PAW double counting   =     32340.89285313   -36127.75492224
  entropy T*S    EENTRO =        -0.00000000
  eigenvalues    EBANDS =    -11417.14251038
  atomic energy  EATOM  =     48196.57542979
  ---------------------------------------------------
  free energy    TOTEN  =      -432.18302117 eV

  energy without entropy =     -432.18302117  energy(sigma->0) =     -432.18302117


--------------------------------------------------------------------------------------------------------




--------------------------------------- Iteration      1(   6)  ---------------------------------------


    POTLOK:  cpu time      0.0352: real time      0.0352
    SETDIJ:  cpu time      0.1876: real time      0.1876
    TRIAL :  cpu time      0.6693: real time      0.6704
    CORREC:  cpu time      0.5241: real time      0.5250
    CHARGE:  cpu time      0.0538: real time      0.0538
    --------------------------------------------
      LOOP:  cpu time      1.4841: real time      1.4863

 eigenvalue-minimisations  :     0
 total energy-change (2. order) : 0.1727730E+03  (-0.9558542E+02)
 number of electron     457.9999281 magnetization 
 augmentation part      156.7870396 magnetization 

 DIPCOR: dipole corrections for dipol
 direction  3 min pos     1,
 dipolmoment           0.000000      0.000000      0.176815 electrons x Angstroem
 Tr[quadrupol]     -6356.162844

 energy correction for charged system         0.000000 eV
 dipol+quadrupol energy correction           -0.001861 eV
 added-field ion interaction         -1.446220 eV  (added to PSCEN)


 Free energy of the ion-electron system (eV)
  ---------------------------------------------------
  alpha Z        PSCENC =       904.36005248
  Ewald energy   TEWEN  =    136984.70187435
  -Hartree energ DENC   =   -176969.43531183
  -exchange      EXHF   =         0.00000000
  -V(xc)+E(xc)   XCENC  =      1890.19784900
  PAW double counting   =     37144.44857263   -40890.59014618
  entropy T*S    EENTRO =        -0.00000000
  eigenvalues    EBANDS =     -7519.66830905
  atomic energy  EATOM  =     48196.57542979
  ---------------------------------------------------
  free energy    TOTEN  =      -259.40998881 eV

  energy without entropy =     -259.40998881  energy(sigma->0) =     -259.40998881


--------------------------------------------------------------------------------------------------------




--------------------------------------- Iteration      1(   7)  ---------------------------------------


    POTLOK:  cpu time      0.0293: real time      0.0293
    SETDIJ:  cpu time      0.1868: real time      0.1868
    TRIAL :  cpu time      0.5995: real time      0.5995
    CORREC:  cpu time      0.5105: real time      0.5105
    CHARGE:  cpu time      0.0534: real time      0.0534
    --------------------------------------------
      LOOP:  cpu time      1.3864: real time      1.3942

 eigenvalue-minimisations  :     0
 total energy-change (2. order) :-0.9595746E+02  (-0.6723544E+01)
 number of electron     457.9999272 magnetization 
 augmentation part      154.9286034 magnetization 

 DIPCOR: dipole corrections for dipol
 direction  3 min pos     1,
 dipolmoment           0.000000      0.000000      0.158180 electrons x Angstroem
 Tr[quadrupol]     -6361.166739

 energy correction for charged system         0.000000 eV
 dipol+quadrupol energy correction           -0.001490 eV
 added-field ion interaction         -1.293797 eV  (added to PSCEN)


 Free energy of the ion-electron system (eV)
  ---------------------------------------------------
  alpha Z        PSCENC =       906.26544159
  Ewald energy   TEWEN  =    136984.70187435
  -Hartree energ DENC   =   -175133.26231146
  -exchange      EXHF   =         0.00000000
  -V(xc)+E(xc)   XCENC  =      1823.45570706
  PAW double counting   =     36033.83156197   -39849.54263143
  entropy T*S    EENTRO =        -0.00000000
  eigenvalues    EBANDS =     -9317.39251703
  atomic energy  EATOM  =     48196.57542979
  ---------------------------------------------------
  free energy    TOTEN  =      -355.36744516 eV

  energy without entropy =     -355.36744516  energy(sigma->0) =     -355.36744516


--------------------------------------------------------------------------------------------------------




--------------------------------------- Iteration      1(   8)  ---------------------------------------


    POTLOK:  cpu time      0.0289: real time      0.0289
    SETDIJ:  cpu time      0.1877: real time      0.1877
    TRIAL :  cpu time      0.6015: real time      0.6015
    CORREC:  cpu time      0.5119: real time      0.5119
    CHARGE:  cpu time      0.0541: real time      0.0541
    --------------------------------------------
      LOOP:  cpu time      1.3985: real time      1.3989

 eigenvalue-minimisations  :     0
 total energy-change (2. order) :-0.6738367E+01  (-0.4170335E+01)
 number of electron     457.9999255 magnetization 
 augmentation part      155.0367778 magnetization 

 DIPCOR: dipole corrections for dipol
 direction  3 min pos     1,
 dipolmoment           0.000000      0.000000      0.105564 electrons x Angstroem
 Tr[quadrupol]     -6359.453746

 energy correction for charged system         0.000000 eV
 dipol+quadrupol energy correction           -0.000663 eV
 added-field ion interaction         -0.863436 eV  (added to PSCEN)


 Free energy of the ion-electron system (eV)
  ---------------------------------------------------
  alpha Z        PSCENC =       906.80449144
  Ewald energy   TEWEN  =    136984.70187435
  -Hartree energ DENC   =   -175024.09760744
  -exchange      EXHF   =         0.00000000
  -V(xc)+E(xc)   XCENC  =      1814.05249838
  PAW double counting   =     35921.24700863   -39667.47275333
  entropy T*S    EENTRO =        -0.00000000
  eigenvalues    EBANDS =     -9493.91675416
  atomic energy  EATOM  =     48196.57542979
  ---------------------------------------------------
  free energy    TOTEN  =      -362.10581234 eV

  energy without entropy =     -362.10581234  energy(sigma->0) =     -362.10581234


--------------------------------------------------------------------------------------------------------




--------------------------------------- Iteration      1(   9)  ---------------------------------------


    POTLOK:  cpu time      0.0293: real time      0.0293
    SETDIJ:  cpu time      0.1865: real time      0.1865
    TRIAL :  cpu time      0.5994: real time      0.5995
    CORREC:  cpu time      0.5121: real time      0.5121
    CHARGE:  cpu time      0.0539: real time      0.0539
    --------------------------------------------
      LOOP:  cpu time      1.3865: real time      1.3959

 eigenvalue-minimisations  :     0
 total energy-change (2. order) :-0.4090002E+01  (-0.1704465E+01)
 number of electron     457.9999254 magnetization 
 augmentation part      155.0561889 magnetization 

 DIPCOR: dipole corrections for dipol
 direction  3 min pos     1,
 dipolmoment           0.000000      0.000000      0.135019 electrons x Angstroem
 Tr[quadrupol]     -6352.343604

 energy correction for charged system         0.000000 eV
 dipol+quadrupol energy correction           -0.001085 eV
 added-field ion interaction         -1.104362 eV  (added to PSCEN)


 Free energy of the ion-electron system (eV)
  ---------------------------------------------------
  alpha Z        PSCENC =       907.22812481
  Ewald energy   TEWEN  =    136984.70187435
  -Hartree energ DENC   =   -174894.30229085
  -exchange      EXHF   =         0.00000000
  -V(xc)+E(xc)   XCENC  =      1813.51855247
  PAW double counting   =     35835.82999074   -39617.10893809
  entropy T*S    EENTRO =        -0.00000000
  eigenvalues    EBANDS =     -9592.63855785
  atomic energy  EATOM  =     48196.57542979
  ---------------------------------------------------
  free energy    TOTEN  =      -366.19581464 eV

  energy without entropy =     -366.19581464  energy(sigma->0) =     -366.19581464


--------------------------------------------------------------------------------------------------------




--------------------------------------- Iteration      1(  10)  ---------------------------------------


    POTLOK:  cpu time      0.0292: real time      0.0292
    SETDIJ:  cpu time      0.1866: real time      0.1866
    TRIAL :  cpu time      0.6005: real time      0.6005
    CORREC:  cpu time      0.5127: real time      0.5127
    CHARGE:  cpu time      0.0532: real time      0.0532
    --------------------------------------------
      LOOP:  cpu time      1.3966: real time      1.3971

 eigenvalue-minimisations  :     0
 total energy-change (2. order) :-0.1717499E+01  (-0.5880536E+00)
 number of electron     457.9999260 magnetization 
 augmentation part      155.0153526 magnetization 

 DIPCOR: dipole corrections for dipol
 direction  3 min pos     1,
 dipolmoment           0.000000      0.000000      0.161425 electrons x Angstroem
 Tr[quadrupol]     -6351.002821

 energy correction for charged system         0.000000 eV
 dipol+quadrupol energy correction           -0.001551 eV
 added-field ion interaction         -1.320346 eV  (added to PSCEN)


 Free energy of the ion-electron system (eV)
  ---------------------------------------------------
  alpha Z        PSCENC =       906.91356798
  Ewald energy   TEWEN  =    136984.70187435
  -Hartree energ DENC   =   -174716.20656291
  -exchange      EXHF   =         0.00000000
  -V(xc)+E(xc)   XCENC  =      1811.82507244
  PAW double counting   =     35722.00805506   -39511.54427917
  entropy T*S    EENTRO =        -0.00000000
  eigenvalues    EBANDS =     -9762.18647100
  atomic energy  EATOM  =     48196.57542979
  ---------------------------------------------------
  free energy    TOTEN  =      -367.91331347 eV

  energy without entropy =     -367.91331347  energy(sigma->0) =     -367.91331347


--------------------------------------------------------------------------------------------------------




--------------------------------------- Iteration      1(  11)  ---------------------------------------


    POTLOK:  cpu time      0.0309: real time      0.0309
    SETDIJ:  cpu time      0.1846: real time      0.1846
    TRIAL :  cpu time      0.6015: real time      0.6016
    CORREC:  cpu time      0.5117: real time      0.5117
    CHARGE:  cpu time      0.0533: real time      0.0533
    --------------------------------------------
      LOOP:  cpu time      1.3871: real time      1.3969

 eigenvalue-minimisations  :     0
 total energy-change (2. order) :-0.5893858E+00  (-0.2118619E+00)
 number of electron     457.9999265 magnetization 
 augmentation part      155.1072971 magnetization 

 DIPCOR: dipole corrections for dipol
 direction  3 min pos     1,
 dipolmoment           0.000000      0.000000      0.147230 electrons x Angstroem
 Tr[quadrupol]     -6351.782353

 energy correction for charged system         0.000000 eV
 dipol+quadrupol energy correction           -0.001290 eV
 added-field ion interaction         -1.204237 eV  (added to PSCEN)


 Free energy of the ion-electron system (eV)
  ---------------------------------------------------
  alpha Z        PSCENC =       906.67887377
  Ewald energy   TEWEN  =    136984.70187435
  -Hartree energ DENC   =   -174648.52500560
  -exchange      EXHF   =         0.00000000
  -V(xc)+E(xc)   XCENC  =      1810.80487506
  PAW double counting   =     35660.47602276   -39442.18196068
  entropy T*S    EENTRO =        -0.00000000
  eigenvalues    EBANDS =     -9837.03280867
  atomic energy  EATOM  =     48196.57542979
  ---------------------------------------------------
  free energy    TOTEN  =      -368.50269922 eV

  energy without entropy =     -368.50269922  energy(sigma->0) =     -368.50269922


--------------------------------------------------------------------------------------------------------




--------------------------------------- Iteration      1(  12)  ---------------------------------------


    POTLOK:  cpu time      0.0294: real time      0.0294
    SETDIJ:  cpu time      0.1871: real time      0.1872
    TRIAL :  cpu time      0.6001: real time      0.6001
    CORREC:  cpu time      0.5118: real time      0.5118
    CHARGE:  cpu time      0.0534: real time      0.0534
    --------------------------------------------
      LOOP:  cpu time      1.3873: real time      1.3964

 eigenvalue-minimisations  :     0
 total energy-change (2. order) :-0.2118534E+00  (-0.7293691E-01)
 number of electron     457.9999266 magnetization 
 augmentation part      155.2093985 magnetization 

 DIPCOR: dipole corrections for dipol
 direction  3 min pos     1,
 dipolmoment           0.000000      0.000000      0.134832 electrons x Angstroem
 Tr[quadrupol]     -6352.487334

 energy correction for charged system         0.000000 eV
 dipol+quadrupol energy correction           -0.001082 eV
 added-field ion interaction         -1.102832 eV  (added to PSCEN)


 Free energy of the ion-electron system (eV)
  ---------------------------------------------------
  alpha Z        PSCENC =       906.75738515
  Ewald energy   TEWEN  =    136984.70187435
  -Hartree energ DENC   =   -174671.44816977
  -exchange      EXHF   =         0.00000000
  -V(xc)+E(xc)   XCENC  =      1811.04578583
  PAW double counting   =     35647.03370308   -39426.90972255
  entropy T*S    EENTRO =        -0.00000000
  eigenvalues    EBANDS =     -9816.47083846
  atomic energy  EATOM  =     48196.57542979
  ---------------------------------------------------
  free energy    TOTEN  =      -368.71455259 eV

  energy without entropy =     -368.71455259  energy(sigma->0) =     -368.71455259


--------------------------------------------------------------------------------------------------------




--------------------------------------- Iteration      1(  13)  ---------------------------------------


    POTLOK:  cpu time      0.0291: real time      0.0291
    SETDIJ:  cpu time      0.1867: real time      0.1867
    TRIAL :  cpu time      0.5993: real time      0.5993
    CORREC:  cpu time      0.5109: real time      0.5113
    CHARGE:  cpu time      0.0536: real time      0.0536
    --------------------------------------------
      LOOP:  cpu time      1.3854: real time      1.3947

 eigenvalue-minimisations  :     0
 total energy-change (2. order) :-0.7296051E-01  (-0.3189693E-01)
 number of electron     457.9999266 magnetization 
 augmentation part      155.2438406 magnetization 

 DIPCOR: dipole corrections for dipol
 direction  3 min pos     1,
 dipolmoment           0.000000      0.000000      0.129837 electrons x Angstroem
 Tr[quadrupol]     -6352.901749

 energy correction for charged system         0.000000 eV
 dipol+quadrupol energy correction           -0.001004 eV
 added-field ion interaction         -1.061971 eV  (added to PSCEN)


 Free energy of the ion-electron system (eV)
  ---------------------------------------------------
  alpha Z        PSCENC =       906.86470682
  Ewald energy   TEWEN  =    136984.70187435
  -Hartree energ DENC   =   -174700.78258136
  -exchange      EXHF   =         0.00000000
  -V(xc)+E(xc)   XCENC  =      1811.34804729
  PAW double counting   =     35646.99770619   -39429.73179625
  entropy T*S    EENTRO =        -0.00000000
  eigenvalues    EBANDS =     -9784.76089992
  atomic energy  EATOM  =     48196.57542979
  ---------------------------------------------------
  free energy    TOTEN  =      -368.78751310 eV

  energy without entropy =     -368.78751310  energy(sigma->0) =     -368.78751310


--------------------------------------------------------------------------------------------------------




--------------------------------------- Iteration      1(  14)  ---------------------------------------


    POTLOK:  cpu time      0.0291: real time      0.0291
    SETDIJ:  cpu time      0.1867: real time      0.1867
    TRIAL :  cpu time      0.5989: real time      0.5990
    CORREC:  cpu time      0.5120: real time      0.5120
    CHARGE:  cpu time      0.0533: real time      0.0533
    --------------------------------------------
      LOOP:  cpu time      1.3849: real time      1.3946

 eigenvalue-minimisations  :     0
 total energy-change (2. order) :-0.3192871E-01  (-0.1497157E-01)
 number of electron     457.9999266 magnetization 
 augmentation part      155.2290089 magnetization 

 DIPCOR: dipole corrections for dipol
 direction  3 min pos     1,
 dipolmoment           0.000000      0.000000      0.128508 electrons x Angstroem
 Tr[quadrupol]     -6353.223818

 energy correction for charged system         0.000000 eV
 dipol+quadrupol energy correction           -0.000983 eV
 added-field ion interaction         -1.051102 eV  (added to PSCEN)


 Free energy of the ion-electron system (eV)
  ---------------------------------------------------
  alpha Z        PSCENC =       906.90686735
  Ewald energy   TEWEN  =    136984.70187435
  -Hartree energ DENC   =   -174714.05583448
  -exchange      EXHF   =         0.00000000
  -V(xc)+E(xc)   XCENC  =      1811.35878827
  PAW double counting   =     35647.47362828   -39431.77356312
  entropy T*S    EENTRO =        -0.00000000
  eigenvalues    EBANDS =     -9770.00663225
  atomic energy  EATOM  =     48196.57542979
  ---------------------------------------------------
  free energy    TOTEN  =      -368.81944181 eV

  energy without entropy =     -368.81944181  energy(sigma->0) =     -368.81944181


--------------------------------------------------------------------------------------------------------




--------------------------------------- Iteration      1(  15)  ---------------------------------------


    POTLOK:  cpu time      0.0292: real time      0.0292
    SETDIJ:  cpu time      0.1879: real time      0.1879
    TRIAL :  cpu time      0.6010: real time      0.6010
    CORREC:  cpu time      0.5107: real time      0.5107
[...]
    273       7.5943      0.00000
    274       7.5943      0.00000
    275       7.6979      0.00000
    276       7.8703      0.00000
    277       8.0053      0.00000
    278       8.0054      0.00000
    279       8.0153      0.00000
    280       8.1669      0.00000
    281       8.1670      0.00000
    282       8.1737      0.00000
    283       8.1765      0.00000
    284       8.1893      0.00000
    285       8.1932      0.00000
    286       8.1989      0.00000
    287       8.1990      0.00000
    288       8.4635      0.00000
    289       8.4640      0.00000
    290       8.4655      0.00000
    291       8.6067      0.00000
    292       8.6480      0.00000
    293       8.6799      0.00000
    294       8.6910      0.00000
    295       8.7149      0.00000
    296       8.7552      0.00000
    297       8.7614      0.00000
    298       8.7677      0.00000
    299       8.7709      0.00000
    300       9.0001      0.00000
    301       9.0299      0.00000
    302       9.0872      0.00000
    303       9.0882      0.00000
    304       9.1928      0.00000
    305       9.3550      0.00000
    306       9.4460      0.00000
    307       9.4902      0.00000
    308       9.5449      0.00000
    309       9.6452      0.00000
    310       9.6708      0.00000
    311       9.6796      0.00000
    312       9.9519      0.00000
    313      10.0315      0.00000
    314      10.0480      0.00000
    315      10.0545      0.00000
    316      10.0804      0.00000
    317      10.4577      0.00000
    318      10.5008      0.00000
    319      10.5953      0.00000
    320      10.6014      0.00000


--------------------------------------------------------------------------------------------------------


 soft charge-density along one line, spin component           1
         0         1         2         3         4         5         6         7         8         9
 total charge-density along one line

 pseudopotential strength for first ion, spin component:           1
 10.254  13.637   0.000   0.037   0.000  -0.000  -0.106  -0.000
 13.637  18.136   0.000   0.049   0.000  -0.000  -0.140  -0.000
  0.000   0.000  -4.280  -0.000  -0.000   8.368   0.000   0.000
  0.037   0.049  -0.000  -4.337   0.000   0.000   8.464  -0.000
  0.000   0.000  -0.000   0.000  -4.280   0.000  -0.000   8.368
 -0.000  -0.000   8.368   0.000   0.000 -18.493  -0.000  -0.000
 -0.106  -0.140   0.000   8.464  -0.000  -0.000 -18.649   0.000
 -0.000  -0.000   0.000  -0.000   8.368  -0.000   0.000 -18.493
 total augmentation occupancy for first ion, spin component:           1
  7.788  -3.557   0.000   2.029   0.000   0.000   0.381  -0.000
 -3.557   1.987  -0.000  -1.554  -0.000   0.000  -0.233   0.000
  0.000  -0.000   0.842   0.000   0.000   0.063   0.000  -0.000
  2.029  -1.554   0.000   2.240   0.000   0.000   0.216  -0.000
  0.000  -0.000   0.000   0.000   0.842   0.000   0.000   0.063
  0.000   0.000   0.063   0.000   0.000   0.005   0.000   0.000
  0.381  -0.233   0.000   0.216   0.000   0.000   0.030   0.000
 -0.000   0.000  -0.000  -0.000   0.063   0.000   0.000   0.005


------------------------ aborting loop because EDIFF is reached ----------------------------------------


    FORLOC:  cpu time      0.0042: real time      0.0042
    FORNL :  cpu time      0.4180: real time      0.4183
    STRESS:  cpu time      1.3354: real time      1.3356
    FORCOR:  cpu time      0.0268: real time      0.0268
    OFIELD:  cpu time      0.0001: real time      0.0001
    FORVDW:  cpu time      7.9403: real time      7.9607

  FORCE on cell =-STRESS in cart. coord.  units (eV):
  Direction    XX          YY          ZZ          XY          YZ          ZX
  --------------------------------------------------------------------------------------
  Alpha Z   907.96410   907.96410   907.96410
  Ewald  157486.48353157486.48353************     0.00000     0.00000    -0.00000
  Hartree167911.43561167911.43561************    -0.00000    -0.00000    -0.00000
  E(xc)   -2509.88372 -2509.88372 -2516.37941     0.00000     0.00000     0.00000
  Local  ************************334980.22296    -0.00000    -0.00000    -0.00000
  n-local -2812.84655 -2813.62499 -2844.55041    -0.00000    -0.00000     0.00000
  augment  1052.75801  1052.75801  1042.63164    -0.00000     0.00000    -0.00000
  Kinetic  7500.66690  7503.16526  7523.21406     0.00001     0.00001    -0.00001
  Fock        0.00000     0.00000     0.00000     0.00000     0.00000     0.00000
  vdW       -21.66559   -21.66562   -16.50777     0.00000     0.00000    -0.00000
  -------------------------------------------------------------------------------------
  Total     -26.06230   -26.06230    -1.85644     0.00000     0.00000     0.00000
  in kB     -27.47459   -27.47459    -1.95704     0.00000     0.00000     0.00000
  external pressure =      -18.97 kB  Pullay stress =        0.00 kB


 VOLUME and BASIS-vectors are now :
 -----------------------------------------------------------------------------
  energy-cutoff  :      600.00
  volume of cell :     1519.82
      direct lattice vectors                 reciprocal lattice vectors
     8.440984654  0.000000000  0.000000000     0.118469591  0.000000000  0.000000000
     0.000000000  8.440984654  0.000000000     0.000000000  0.118469591  0.000000000
     0.000000000  0.000000000 21.330738491     0.000000000  0.000000000  0.046880702

  length of vectors
     8.440984654  8.440984654 21.330738491     0.118469591  0.118469591  0.046880702


 FORCES acting on ions:
    Electron-Ion                     Ewald-Force                    Non-Local-Force
 -----------------------------------------------------------------------------------------------
   0.878E-13 0.137E-11 -.822E+03   -.111E-14 0.400E-14 0.795E+03   0.000E+00 0.000E+00 0.267E+02
   0.412E-12 0.373E-11 -.142E+04   -.844E-14 0.133E-14 0.148E+04   0.000E+00 0.993E-23 -.595E+02
   -.457E-13 -.122E+00 0.208E+04   0.560E-13 0.122E+00 -.207E+04   -.132E-22 -.214E-03 -.716E+01
   0.122E+00 -.269E-13 0.208E+04   -.122E+00 0.671E-13 -.207E+04   0.214E-03 0.000E+00 -.716E+01
   -.560E-13 -.407E-12 0.713E+03   -.150E-10 0.150E-10 -.713E+03   0.000E+00 0.000E+00 0.502E+00
   0.427E+00 -.427E+00 0.714E+03   -.423E+00 0.423E+00 -.714E+03   -.258E-02 0.258E-02 0.528E+00
   -.534E-13 -.271E+01 -.643E+03   0.157E-11 0.269E+01 0.643E+03   0.000E+00 0.147E-01 -.156E+00
   0.271E+01 -.266E-12 -.643E+03   -.269E+01 -.151E-11 0.643E+03   -.147E-01 -.265E-22 -.156E+00
   -.182E-13 -.313E-12 -.200E+04   0.444E-12 -.416E-12 0.200E+04   -.662E-23 0.000E+00 0.608E+01
   0.172E+02 -.172E+02 -.198E+04   -.173E+02 0.173E+02 0.198E+04   0.913E-01 -.913E-01 0.617E+01
   -.340E-13 0.122E+00 0.208E+04   -.277E-12 -.122E+00 -.207E+04   0.951E-23 0.214E-03 -.716E+01
   0.115E+00 0.653E-12 0.208E+04   -.113E+00 0.131E-10 -.207E+04   -.167E-02 0.265E-22 -.716E+01
   -.680E-13 0.717E-12 0.714E+03   -.165E-10 0.000E+00 -.714E+03   -.331E-23 0.000E+00 0.465E+00
   0.427E+00 0.427E+00 0.714E+03   -.423E+00 -.423E+00 -.714E+03   -.258E-02 -.258E-02 0.528E+00
   -.506E-13 0.271E+01 -.643E+03   0.304E-11 -.269E+01 0.643E+03   0.132E-22 -.147E-01 -.156E+00
   0.381E+01 0.131E-11 -.636E+03   -.374E+01 0.178E-14 0.637E+03   -.779E-01 -.794E-22 -.264E+00
   -.746E-15 0.714E-12 -.199E+04   -.355E-13 -.995E-13 0.198E+04   0.165E-23 0.000E+00 0.609E+01
   0.172E+02 0.172E+02 -.198E+04   -.173E+02 -.173E+02 0.198E+04   0.913E-01 0.913E-01 0.617E+01
   0.908E-12 -.115E+00 0.208E+04   -.129E-10 0.113E+00 -.207E+04   0.265E-22 0.167E-02 -.716E+01
   -.122E+00 -.101E-12 0.208E+04   0.122E+00 0.471E-13 -.207E+04   -.214E-03 0.116E-22 -.716E+01
   0.825E-12 -.774E-12 0.714E+03   0.145E-11 0.150E-10 -.714E+03   -.331E-23 0.000E+00 0.465E+00
   -.427E+00 -.427E+00 0.714E+03   0.423E+00 0.423E+00 -.714E+03   0.258E-02 0.258E-02 0.528E+00
   0.827E-12 -.381E+01 -.636E+03   -.141E-11 0.374E+01 0.637E+03   0.596E-22 0.779E-01 -.264E+00
   -.271E+01 -.199E-12 -.643E+03   0.269E+01 -.156E-11 0.643E+03   0.147E-01 0.000E+00 -.156E+00
   0.891E-12 0.700E-12 -.199E+04   0.782E-13 -.355E-14 0.198E+04   -.199E-22 0.000E+00 0.609E+01
   -.172E+02 -.172E+02 -.198E+04   0.173E+02 0.173E+02 0.198E+04   -.913E-01 -.913E-01 0.617E+01
   0.899E-12 0.115E+00 0.208E+04   -.131E-10 -.113E+00 -.207E+04   0.397E-22 -.167E-02 -.716E+01
   -.115E+00 0.276E-12 0.208E+04   0.113E+00 0.131E-10 -.207E+04   0.167E-02 0.000E+00 -.716E+01
   0.874E-12 0.234E-11 0.714E+03   -.782E-13 0.355E-14 -.714E+03   0.000E+00 0.000E+00 0.600E+00
   -.427E+00 0.427E+00 0.714E+03   0.423E+00 -.423E+00 -.714E+03   0.258E-02 -.258E-02 0.528E+00
   0.825E-12 0.381E+01 -.636E+03   -.284E-13 -.374E+01 0.637E+03   0.265E-22 -.779E-01 -.264E+00
   -.381E+01 -.148E-11 -.636E+03   0.374E+01 0.000E+00 0.637E+03   0.779E-01 0.000E+00 -.264E+00
   0.928E-12 0.139E-11 -.192E+04   -.426E-13 -.391E-13 0.192E+04   -.132E-22 0.000E+00 0.437E+01
   -.172E+02 0.172E+02 -.198E+04   0.173E+02 -.173E+02 0.198E+04   -.913E-01 0.913E-01 0.617E+01
   -.689E-13 -.378E+00 0.534E+03   0.409E-13 0.373E+00 -.534E+03   0.000E+00 0.680E-02 -.910E-01
   0.378E+00 0.327E-12 0.534E+03   -.373E+00 0.391E-13 -.534E+03   -.680E-02 -.529E-22 -.910E-01
   -.193E-13 -.195E-12 0.156E+04   0.853E-11 -.844E-11 -.156E+04   0.000E+00 0.000E+00 0.341E+01
   0.882E-01 -.882E-01 0.156E+04   -.874E-01 0.874E-01 -.156E+04   -.105E-02 0.105E-02 0.341E+01
   -.273E-13 -.708E+01 -.152E+04   -.871E-12 0.702E+01 0.153E+04   -.132E-22 0.537E-01 -.495E+01
   0.708E+01 0.586E-12 -.152E+04   -.702E+01 0.881E-12 0.153E+04   -.537E-01 -.265E-22 -.495E+01
   -.494E-13 -.177E-12 -.479E+03   -.853E-13 0.639E-13 0.478E+03   0.000E+00 -.662E-23 0.258E+00
   0.241E+01 -.241E+01 -.474E+03   -.240E+01 0.240E+01 0.473E+03   -.663E-02 0.663E-02 0.326E+00
   -.590E-13 0.378E+00 0.534E+03   0.142E-13 -.373E+00 -.534E+03   0.265E-22 -.680E-02 -.910E-01
   0.338E+00 0.953E-12 0.535E+03   -.364E+00 -.764E-11 -.535E+03   0.353E-01 0.132E-22 -.111E+00
   -.408E-13 0.317E-12 0.156E+04   0.845E-11 -.796E-12 -.156E+04   0.000E+00 0.331E-23 0.341E+01
   0.882E-01 0.882E-01 0.156E+04   -.874E-01 -.874E-01 -.156E+04   -.105E-02 -.105E-02 0.341E+01
   -.321E-13 0.708E+01 -.152E+04   -.774E-12 -.702E+01 0.153E+04   0.000E+00 -.537E-01 -.495E+01
   0.221E+02 0.343E-12 -.149E+04   -.218E+02 0.810E-11 0.150E+04   -.298E+00 -.132E-22 -.495E+01
   -.566E-13 0.129E-11 -.474E+03   -.741E-11 0.711E-14 0.473E+03   0.000E+00 0.000E+00 0.282E+00
   0.241E+01 0.241E+01 -.474E+03   -.240E+01 -.240E+01 0.473E+03   -.663E-02 -.663E-02 0.326E+00
   0.333E-12 -.338E+00 0.535E+03   0.764E-11 0.364E+00 -.535E+03   0.265E-22 -.353E-01 -.111E+00
   -.378E+00 0.362E-12 0.534E+03   0.373E+00 0.142E-13 -.534E+03   0.680E-02 -.430E-22 -.910E-01
   0.371E-12 -.599E-12 0.156E+04   0.845E-12 -.846E-11 -.156E+04   -.165E-23 -.529E-22 0.341E+01
   -.882E-01 -.882E-01 0.156E+04   0.874E-01 0.874E-01 -.156E+04   0.105E-02 0.105E-02 0.341E+01
   0.358E-12 -.221E+02 -.149E+04   -.816E-11 0.218E+02 0.150E+04   -.132E-22 0.298E+00 -.495E+01
   -.708E+01 0.599E-12 -.152E+04   0.702E+01 0.924E-12 0.153E+04   0.537E-01 0.000E+00 -.495E+01
   0.318E-12 -.103E-11 -.474E+03   -.711E-14 0.738E-11 0.473E+03   0.662E-23 0.000E+00 0.282E+00
   -.241E+01 -.241E+01 -.474E+03   0.240E+01 0.240E+01 0.473E+03   0.663E-02 0.663E-02 0.326E+00
   0.321E-12 0.338E+00 0.535E+03   0.763E-11 -.364E+00 -.535E+03   0.331E-23 0.353E-01 -.111E+00
   -.338E+00 0.191E-11 0.535E+03   0.364E+00 -.769E-11 -.535E+03   -.353E-01 0.132E-22 -.111E+00
   0.363E-12 0.269E-12 0.156E+04   0.824E-12 -.838E-12 -.156E+04   0.000E+00 0.000E+00 0.340E+01
   -.882E-01 0.882E-01 0.156E+04   0.874E-01 -.874E-01 -.156E+04   0.105E-02 -.105E-02 0.341E+01
   0.357E-12 0.221E+02 -.149E+04   -.820E-11 -.218E+02 0.150E+04   0.232E-22 -.298E+00 -.495E+01
   -.221E+02 -.206E-11 -.149E+04   0.218E+02 0.819E-11 0.150E+04   0.298E+00 0.000E+00 -.495E+01
   0.306E-12 0.889E-12 -.474E+03   -.497E-13 0.426E-13 0.474E+03   0.000E+00 0.000E+00 -.192E+00
   -.241E+01 0.241E+01 -.474E+03   0.240E+01 -.240E+01 0.473E+03   0.663E-02 -.663E-02 0.326E+00
 -----------------------------------------------------------------------------------------------
   0.265E-10 0.288E-10 0.515E+02   0.162E-12 -.657E-13 0.193E-11   -.156E-16 -.173E-17 -.516E+02


 POSITION                                       TOTAL-FORCE (eV/Angst)
 -----------------------------------------------------------------------------------
      4.22049      4.22049     16.38814         0.000000     -0.000000     -0.022317
      4.22049      4.22049     17.53496         0.000000     -0.000000     -0.012377
      0.00000      6.33074      7.50000         0.000000      0.000051      0.339013
      2.11025      0.00000      7.50000        -0.000051     -0.000000      0.339013
      0.00000      0.00000      9.61025         0.000000     -0.000000      0.069996
      2.11025      6.33074      9.61025         0.001528     -0.001528      0.072107
      0.00000      6.33023     11.73368         0.000000      0.000260     -0.002897
      2.11076      0.00000     11.73368        -0.000260     -0.000000     -0.002897
      0.00000      0.00000     13.83822         0.000000     -0.000000     -0.000331
      2.10905      6.33193     13.83447        -0.000255      0.000255      0.002663
      0.00000      2.11025      7.50000         0.000000     -0.000051      0.339013
      2.11025      4.22049      7.50000         0.000656     -0.000000      0.339061
      0.00000      4.22049      9.61025         0.000000     -0.000000      0.078637
      2.11025      2.11025      9.61025         0.001528      0.001528      0.072107
      0.00000      2.11076     11.73368         0.000000     -0.000260     -0.002897
      2.11344      4.22049     11.73659        -0.003881     -0.000000      0.003294
      0.00000      4.22049     13.83544         0.000000     -0.000000     -0.000116
      2.10905      2.10905     13.83447        -0.000255     -0.000255      0.002663
      4.22049      6.33074      7.50000         0.000000     -0.000656      0.339061
      6.33074      0.00000      7.50000         0.000051     -0.000000      0.339013
      4.22049      0.00000      9.61025         0.000000     -0.000000      0.078637
      6.33074      6.33074      9.61025        -0.001528     -0.001528      0.072107
      4.22049      6.32754     11.73659         0.000000      0.003881      0.003294
      6.33023      0.00000     11.73368         0.000260     -0.000000     -0.002897
      4.22049      0.00000     13.83544         0.000000     -0.000000     -0.000116
      6.33193      6.33193     13.83447         0.000255      0.000255      0.002663
      4.22049      2.11025      7.50000         0.000000      0.000656      0.339061
      6.33074      4.22049      7.50000        -0.000656     -0.000000      0.339061
      4.22049      4.22049      9.61025         0.000000     -0.000000      0.084147
      6.33074      2.11025      9.61025        -0.001528      0.001528      0.072107
      4.22049      2.11344     11.73659         0.000000     -0.003881      0.003294
      6.32754      4.22049     11.73659         0.003881     -0.000000      0.003294
      4.22049      4.22049     13.87814         0.000000     -0.000000      0.034358
      6.33193      2.10905     13.83447         0.000255     -0.000255      0.002663
      0.00000      6.33074      9.61025         0.000000      0.002047      0.077207
      2.11025      0.00000      9.61025        -0.002047     -0.000000      0.077207
      0.00000      0.00000      7.50000         0.000000     -0.000000     -0.501374
      2.11025      6.33074      7.50000        -0.000305      0.000305     -0.501139
      0.00000      6.33258     13.88587         0.000000     -0.002745     -0.000046
      2.10840      0.00000     13.88587         0.002745     -0.000000     -0.000046
      0.00000      0.00000     11.72785         0.000000     -0.000000      0.006083
      2.10979      6.33120     11.72890         0.003020     -0.003020     -0.000688
      0.00000      2.11025      9.61025         0.000000     -0.002047      0.077207
      2.11025      4.22049      9.61025         0.009057     -0.000000      0.086286
      0.00000      4.22049      7.50000         0.000000     -0.000000     -0.501221
      2.11025      2.11025      7.50000        -0.000305     -0.000305     -0.501139
      0.00000      2.10840     13.88587         0.000000      0.002745     -0.000046
      2.10031      4.22049     13.88381         0.013135     -0.000000      0.005634
      0.00000      4.22049     11.72684         0.000000     -0.000000      0.003931
      2.10979      2.10979     11.72890         0.003020      0.003020     -0.000688
      4.22049      6.33074      9.61025         0.000000     -0.009057      0.086286
      6.33074      0.00000      9.61025         0.002047     -0.000000      0.077207
      4.22049      0.00000      7.50000         0.000000     -0.000000     -0.501221
      6.33074      6.33074      7.50000         0.000305      0.000305     -0.501139
      4.22049      6.34068     13.88381         0.000000     -0.013135      0.005634
      6.33258      0.00000     13.88587        -0.002745     -0.000000     -0.000046
      4.22049      0.00000     11.72684         0.000000     -0.000000      0.003931
      6.33120      6.33120     11.72890        -0.003020     -0.003020     -0.000688
      4.22049      2.11025      9.61025         0.000000      0.009057      0.086286
      6.33074      4.22049      9.61025        -0.009057     -0.000000      0.086286
      4.22049      4.22049      7.50000         0.000000     -0.000000     -0.501908
      6.33074      2.11025      7.50000         0.000305     -0.000305     -0.501139
      4.22049      2.10031     13.88381         0.000000      0.013135      0.005634
      6.34068      4.22049     13.88381        -0.013135     -0.000000      0.005634
      4.22049      4.22049     11.73684         0.000000     -0.000000     -0.000721
      6.33120      2.10979     11.72890        -0.003020      0.003020     -0.000688
 -----------------------------------------------------------------------------------
    total drift:                                0.000000      0.000000     -0.018633


--------------------------------------------------------------------------------------------------------



  FREE ENERGIE OF THE ION-ELECTRON SYSTEM (eV)
  ---------------------------------------------------
  free  energy   TOTEN  =      -386.05018669 eV

  energy  without entropy=     -386.05018669  energy(sigma->0) =     -386.05018669



--------------------------------------------------------------------------------------------------------


    POTLOK:  cpu time      0.4728: real time      0.4729


--------------------------------------------------------------------------------------------------------


     LOOP+:  cpu time     55.0498: real time     55.4638
    4ORBIT:  cpu time      0.0000: real time      0.0000

 total amount of memory used by VASP MPI-rank0    78528. kBytes
=======================================================================

   base      :      30000. kBytes
   nonl-proj :      29343. kBytes
   fftplans  :       3857. kBytes
   grid      :       5885. kBytes
   one-center:        137. kBytes
   wavefun   :       9306. kBytes

  
  
 General timing and accounting informations for this job:
 ========================================================
  
                  Total CPU time used (sec):       73.031
                            User time (sec):       71.003
                          System time (sec):        2.028
                         Elapsed time (sec):       78.096
  
                   Maximum memory used (kb):      178908.
                   Average memory used (kb):          N/A
  
                          Minor page faults:        32423
                          Major page faults:           51
                 Voluntary context switches:         7133
