 **********************************************************************
                          MRCC program system
 **********************************************************************
 
                              Written by
     Mihaly Kallay, Peter R. Nagy, David Mester, Laszlo Gyevi-Nagy,
        Jozsef Csoka, P. Bernat Szabo, Zoltan Rolik, Gyula Samu,
     Jozsef Csontos, Bence Hegely, Adam Ganyecz, Istvan Ladjanszki,
       Lorant Szegedy, Bence Ladoczki, Klara Petrov, Mate Farkas,
                    Pal D. Mezei, and Reka A. Horvath
 
        Department of Physical Chemistry and Materials Science
            Budapest University of Technology and Economics
                  Budapest P.O.Box 91, H-1521 Hungary
 
                              www.mrcc.hu
 
                      Release date: March 18, 2022

 ************************ 2022-10-15 12:47:34 *************************
 Executing minp...

 Reading input from MINP...
 
 Input file:
 
calc=DF-CCSD(T)
scftype=rhf
verbosity=3
mem=150GB
symm=off
unit=angs
scfiguess=small
scfmaxit=1000
scfalg=locfit1


ccmaxit=400
ccsdalg=dfdirect
ccsdthreads=4
ccsdmkl=thr
ptthreads=4

charge=-8
core=6

basis=special
aug-cc-pVDZ
aug-cc-pVDZ
bse_CVDZ
aug-cc-pVDZ
aug-cc-pVDZ
aug-cc-pVDZ
aug-cc-pVDZ
aug-cc-pVDZ
nothing
nothing
nothing
nothing
nothing
nothing
nothing
nothing
nothing
nothing
nothing
nothing
nothing
nothing
nothing
nothing
nothing
nothing
nothing
nothing
nothing
nothing
nothing
nothing
nothing

basis_sm=special
def2-SVP
def2-SVP
def2-SVP
def2-SVP
def2-SVP
def2-SVP
def2-SVP
def2-SVP
nothing
nothing
nothing
nothing
nothing
nothing
nothing
nothing
nothing
nothing
nothing
nothing
nothing
nothing
nothing
nothing
nothing
nothing
nothing
nothing
nothing
nothing
nothing
nothing
nothing

dfbasis_scf=special
def2-QZVPP-RI-JK
def2-QZVPP-RI-JK
def2-QZVPP-RI-JK
def2-QZVPP-RI-JK
def2-QZVPP-RI-JK
def2-QZVPP-RI-JK
def2-QZVPP-RI-JK
def2-QZVPP-RI-JK
nothing
nothing
nothing
nothing
nothing
nothing
nothing
nothing
nothing
nothing
nothing
nothing
nothing
nothing
nothing
nothing
nothing
nothing
nothing
nothing
nothing
nothing
nothing
nothing
nothing

dfbasis_cor=special
aug-cc-pVDZ-RI
aug-cc-pVDZ-RI
bse_CVDZ_mp2fit
aug-cc-pVDZ-RI
aug-cc-pVDZ-RI
aug-cc-pVDZ-RI
aug-cc-pVDZ-RI
aug-cc-pVDZ-RI
nothing
nothing
nothing
nothing
nothing
nothing
nothing
nothing
nothing
nothing
nothing
nothing
nothing
nothing
nothing
nothing
nothing
nothing
nothing
nothing
nothing
nothing
nothing
nothing
nothing

ecp=special
none
none
none
none
none
none
none
none
ECP-12
ECP-12
ECP-12
ECP-12
ECP-12
ECP-12
ECP-12
ECP-12
ECP-12
ECP-12
ECP-12
ECP-12
ECP-12
ECP-12
ECP-12
ECP-12
ECP-12
ECP-12
ECP-12
ECP-12
ECP-12
ECP-12
ECP-12
ECP-12
ECP-12

unit=angs
geom=xyz
33
C1 O1 Mg1 O5 ECP25
C     0.00000000000    0.00000000000    2.43329433571
O     0.00000000000    0.00000000000    3.58011415037
Mg    0.00000000000    0.00000000000   -0.00772802266
O    -2.12018425659    0.00000000000   -0.00205593177
O     0.00000000000    2.12018425659   -0.00205593177
O     2.12018425659    0.00000000000   -0.00205593177
O     0.00000000000   -2.12018425659   -0.00205593177
O     0.00000000000    0.00000000000   -2.14902768389
Mg   -2.11144262254    2.11144262254   -0.05140086690
Mg    2.11144262254    2.11144262254   -0.05140086690
Mg    2.11144262254   -2.11144262254   -0.05140086690
Mg   -2.11144262254   -2.11144262254   -0.05140086690
Mg   -2.10705287155    0.00000000000   -2.14928009216
Mg    0.00000000000    2.10705287155   -2.14928009216
Mg    2.10705287155    0.00000000000   -2.14928009216
Mg    0.00000000000   -2.10705287155   -2.14928009216
Mg   -4.22049352791    0.00000000000   -0.05042534122
Mg    0.00000000000    4.22049352791   -0.05042534122
Mg    4.22049352791    0.00000000000   -0.05042534122
Mg    0.00000000000   -4.22049352791   -0.05042534122
Mg    0.00000000000    0.00000000000   -4.27562330794
Mg   -4.22049352791    2.10973412517   -2.15218714568
Mg   -2.10973412517    4.22049352791   -2.15218714568
Mg    2.10973412517    4.22049352791   -2.15218714568
Mg    4.22049352791    2.10973412517   -2.15218714568
Mg    4.22049352791   -2.10973412517   -2.15218714568
Mg    2.10973412517   -4.22049352791   -2.15218714568
Mg   -2.10973412517   -4.22049352791   -2.15218714568
Mg   -4.22049352791   -2.10973412517   -2.15218714568
Mg   -2.11024676395    2.11024676395   -4.27562330794
Mg    2.11024676395    2.11024676395   -4.27562330794
Mg    2.11024676395   -2.11024676395   -4.27562330794
Mg   -2.11024676395   -2.11024676395   -4.27562330794


ghost=serialno
1-2

qmmm=Amber
pointcharges
10185
     -2.11144262254    2.11144262254   -0.05140086690    2.00000000000
      2.11144262254    2.11144262254   -0.05140086690    2.00000000000
      2.11144262254   -2.11144262254   -0.05140086690    2.00000000000
     -2.11144262254   -2.11144262254   -0.05140086690    2.00000000000
     -2.10705287155    0.00000000000   -2.14928009216    2.00000000000
      0.00000000000    2.10705287155   -2.14928009216    2.00000000000
      2.10705287155    0.00000000000   -2.14928009216    2.00000000000
      0.00000000000   -2.10705287155   -2.14928009216    2.00000000000
     -2.11070451449    2.11070451449   -2.15696791928   -2.00000000000
      2.11070451449    2.11070451449   -2.15696791928   -2.00000000000
      2.11070451449   -2.11070451449   -2.15696791928   -2.00000000000
     -2.11070451449   -2.11070451449   -2.15696791928   -2.00000000000
     -4.22049352791    0.00000000000   -0.05042534122    2.00000000000
      0.00000000000    4.22049352791   -0.05042534122    2.00000000000
      4.22049352791    0.00000000000   -0.05042534122    2.00000000000
      0.00000000000   -4.22049352791   -0.05042534122    2.00000000000
      0.00000000000    0.00000000000   -4.27562330794    2.00000000000
     -4.22049352791    2.11209139723    0.00000000000   -2.00000000000
     -2.11209139723    4.22049352791    0.00000000000   -2.00000000000
      2.11209139723    4.22049352791    0.00000000000   -2.00000000000
      4.22049352791    2.11209139723    0.00000000000   -2.00000000000
      4.22049352791   -2.11209139723    0.00000000000   -2.00000000000
      2.11209139723   -4.22049352791    0.00000000000   -2.00000000000
     -2.11209139723   -4.22049352791    0.00000000000   -2.00000000000
     -4.22049352791   -2.11209139723    0.00000000000   -2.00000000000
     -4.22049352791    0.00000000000   -2.15902521756   -2.00000000000
      0.00000000000    4.22049352791   -2.15902521756   -2.00000000000
      4.22049352791    0.00000000000   -2.15902521756   -2.00000000000
      0.00000000000   -4.22049352791   -2.15902521756   -2.00000000000
     -2.11024676395    0.00000000000   -4.27562330794   -2.00000000000
      0.00000000000    2.11024676395   -4.27562330794   -2.00000000000
      2.11024676395    0.00000000000   -4.27562330794   -2.00000000000
      0.00000000000   -2.11024676395   -4.27562330794   -2.00000000000
     -4.22049352791    2.10973412517   -2.15218714568    2.00000000000
     -2.10973412517    4.22049352791   -2.15218714568    2.00000000000
      2.10973412517    4.22049352791   -2.15218714568    2.00000000000
      4.22049352791    2.10973412517   -2.15218714568    2.00000000000
      4.22049352791   -2.10973412517   -2.15218714568    2.00000000000
      2.10973412517   -4.22049352791   -2.15218714568    2.00000000000
     -2.10973412517   -4.22049352791   -2.15218714568    2.00000000000
     -4.22049352791   -2.10973412517   -2.15218714568    2.00000000000
     -2.11024676395    2.11024676395   -4.27562330794    2.00000000000
      2.11024676395    2.11024676395   -4.27562330794    2.00000000000
      2.11024676395   -2.11024676395   -4.27562330794    2.00000000000
     -2.11024676395   -2.11024676395   -4.27562330794    2.00000000000
     -4.22049352791    4.22049352791   -0.04765173215    2.00000000000
      4.22049352791    4.22049352791   -0.04765173215    2.00000000000
      4.22049352791   -4.22049352791   -0.04765173215    2.00000000000
     -4.22049352791   -4.22049352791   -0.04765173215    2.00000000000
     -4.22049352791    0.00000000000   -4.27562330794    2.00000000000
      0.00000000000    4.22049352791   -4.27562330794    2.00000000000
      4.22049352791    0.00000000000   -4.27562330794    2.00000000000
      0.00000000000   -4.22049352791   -4.27562330794    2.00000000000
     -6.32080279923    0.00000000000   -0.00205593177   -2.00000000000
      0.00000000000    6.32080279923   -0.00205593177   -2.00000000000
      6.32080279923    0.00000000000   -0.00205593177   -2.00000000000
      0.00000000000   -6.32080279923   -0.00205593177   -2.00000000000
     -4.22049352791    4.22049352791   -2.15801787533   -2.00000000000
      4.22049352791    4.22049352791   -2.15801787533   -2.00000000000
      4.22049352791   -4.22049352791   -2.15801787533   -2.00000000000
     -4.22049352791   -4.22049352791   -2.15801787533   -2.00000000000
     -4.22049352791    2.11024676395   -4.27562330794   -2.00000000000
     -2.11024676395    4.22049352791   -4.27562330794   -2.00000000000
      2.11024676395    4.22049352791   -4.27562330794   -2.00000000000
      4.22049352791    2.11024676395   -4.27562330794   -2.00000000000
      4.22049352791   -2.11024676395   -4.27562330794   -2.00000000000
      2.11024676395   -4.22049352791   -4.27562330794   -2.00000000000
     -2.11024676395   -4.22049352791   -4.27562330794   -2.00000000000
     -4.22049352791   -2.11024676395   -4.27562330794   -2.00000000000
      0.00000000000    0.00000000000   -6.38587007189   -2.00000000000
     -6.32954443328    2.11144262254   -0.05140086690    2.00000000000
     -2.11144262254    6.32954443328   -0.05140086690    2.00000000000
      2.11144262254    6.32954443328   -0.05140086690    2.00000000000
      6.32954443328    2.11144262254   -0.05140086690    2.00000000000
      6.32954443328   -2.11144262254   -0.05140086690    2.00000000000
      2.11144262254   -6.32954443328   -0.05140086690    2.00000000000
     -2.11144262254   -6.32954443328   -0.05140086690    2.00000000000
     -6.32954443328   -2.11144262254   -0.05140086690    2.00000000000
     -6.33393418427    0.00000000000   -2.14928009216    2.00000000000
      0.00000000000    6.33393418427   -2.14928009216    2.00000000000
      6.33393418427    0.00000000000   -2.14928009216    2.00000000000
      0.00000000000   -6.33393418427   -2.14928009216    2.00000000000
     -2.11024676395    0.00000000000   -6.38587007189    2.00000000000
      0.00000000000    2.11024676395   -6.38587007189    2.00000000000
      2.11024676395    0.00000000000   -6.38587007189    2.00000000000
      0.00000000000   -2.11024676395   -6.38587007189    2.00000000000
     -6.33028254133    2.11070451449   -2.15696791928   -2.00000000000
     -2.11070451449    6.33028254133   -2.15696791928   -2.00000000000
      2.11070451449    6.33028254133   -2.15696791928   -2.00000000000
      6.33028254133    2.11070451449   -2.15696791928   -2.00000000000
      6.33028254133   -2.11070451449   -2.15696791928   -2.00000000000
      2.11070451449   -6.33028254133   -2.15696791928   -2.00000000000
     -2.11070451449   -6.33028254133   -2.15696791928   -2.00000000000
     -6.33028254133   -2.11070451449   -2.15696791928   -2.00000000000
     -2.11024676395    2.11024676395   -6.38587007189   -2.00000000000
      2.11024676395    2.11024676395   -6.38587007189   -2.00000000000
      2.11024676395   -2.11024676395   -6.38587007189   -2.00000000000
     -2.11024676395   -2.11024676395   -6.38587007189   -2.00000000000
     -4.22049352791    4.22049352791   -4.27562330794    2.00000000000
      4.22049352791    4.22049352791   -4.27562330794    2.00000000000
      4.22049352791   -4.22049352791   -4.27562330794    2.00000000000
     -4.22049352791   -4.22049352791   -4.27562330794    2.00000000000
     -6.32889565859    4.22049352791    0.00000000000   -2.00000000000
     -4.22049352791    6.32889565859    0.00000000000   -2.00000000000
      4.22049352791    6.32889565859    0.00000000000   -2.00000000000
      6.32889565859    4.22049352791    0.00000000000   -2.00000000000
      6.32889565859   -4.22049352791    0.00000000000   -2.00000000000
      4.22049352791   -6.32889565859    0.00000000000   -2.00000000000
     -4.22049352791   -6.32889565859    0.00000000000   -2.00000000000
     -6.32889565859   -4.22049352791    0.00000000000   -2.00000000000
     -6.33074029186    0.00000000000   -4.27562330794   -2.00000000000
      0.00000000000    6.33074029186   -4.27562330794   -2.00000000000
      6.33074029186    0.00000000000   -4.27562330794   -2.00000000000
      0.00000000000   -6.33074029186   -4.27562330794   -2.00000000000
     -4.22049352791    0.00000000000   -6.38587007189   -2.00000000000
      0.00000000000    4.22049352791   -6.38587007189   -2.00000000000
      4.22049352791    0.00000000000   -6.38587007189   -2.00000000000
      0.00000000000   -4.22049352791   -6.38587007189   -2.00000000000
     -6.33125293065    4.22049352791   -2.15218714568    2.00000000000
     -4.22049352791    6.33125293065   -2.15218714568    2.00000000000
      4.22049352791    6.33125293065   -2.15218714568    2.00000000000
      6.33125293065    4.22049352791   -2.15218714568    2.00000000000
      6.33125293065   -4.22049352791   -2.15218714568    2.00000000000
      4.22049352791   -6.33125293065   -2.15218714568    2.00000000000
     -4.22049352791   -6.33125293065   -2.15218714568    2.00000000000
     -6.33125293065   -4.22049352791   -2.15218714568    2.00000000000
     -6.33074029186    2.11024676395   -4.27562330794    2.00000000000
     -2.11024676395    6.33074029186   -4.27562330794    2.00000000000
      2.11024676395    6.33074029186   -4.27562330794    2.00000000000
      6.33074029186    2.11024676395   -4.27562330794    2.00000000000
      6.33074029186   -2.11024676395   -4.27562330794    2.00000000000
      2.11024676395   -6.33074029186   -4.27562330794    2.00000000000
     -2.11024676395   -6.33074029186   -4.27562330794    2.00000000000
     -6.33074029186   -2.11024676395   -4.27562330794    2.00000000000
     -4.22049352791    2.11024676395   -6.38587007189    2.00000000000
     -2.11024676395    4.22049352791   -6.38587007189    2.00000000000
      2.11024676395    4.22049352791   -6.38587007189    2.00000000000
      4.22049352791    2.11024676395   -6.38587007189    2.00000000000
      4.22049352791   -2.11024676395   -6.38587007189    2.00000000000
      2.11024676395   -4.22049352791   -6.38587007189    2.00000000000
     -2.11024676395   -4.22049352791   -6.38587007189    2.00000000000
     -4.22049352791   -2.11024676395   -6.38587007189    2.00000000000
     -8.44098705582    0.00000000000   -0.00772802266    2.00000000000
      0.00000000000    8.44098705582   -0.00772802266    2.00000000000
      8.44098705582    0.00000000000   -0.00772802266    2.00000000000
      0.00000000000   -8.44098705582   -0.00772802266    2.00000000000
     -8.44098705582    2.12018425659   -0.00205593177   -2.00000000000
     -2.12018425659    8.44098705582   -0.00205593177   -2.00000000000
      2.12018425659    8.44098705582   -0.00205593177   -2.00000000000
      8.44098705582    2.12018425659   -0.00205593177   -2.00000000000
      8.44098705582   -2.12018425659   -0.00205593177   -2.00000000000
      2.12018425659   -8.44098705582   -0.00205593177   -2.00000000000
     -2.12018425659   -8.44098705582   -0.00205593177   -2.00000000000
     -8.44098705582   -2.12018425659   -0.00205593177   -2.00000000000
     -8.44098705582    0.00000000000   -2.14902768389   -2.00000000000
      0.00000000000    8.44098705582   -2.14902768389   -2.00000000000
      8.44098705582    0.00000000000   -2.14902768389   -2.00000000000
      0.00000000000   -8.44098705582   -2.14902768389   -2.00000000000
     -6.33074029186    4.22049352791   -4.27562330794   -2.00000000000
     -4.22049352791    6.33074029186   -4.27562330794   -2.00000000000
      4.22049352791    6.33074029186   -4.27562330794   -2.00000000000
      6.33074029186    4.22049352791   -4.27562330794   -2.00000000000
      6.33074029186   -4.22049352791   -4.27562330794   -2.00000000000
      4.22049352791   -6.33074029186   -4.27562330794   -2.00000000000
     -4.22049352791   -6.33074029186   -4.27562330794   -2.00000000000
     -6.33074029186   -4.22049352791   -4.27562330794   -2.00000000000
     -4.22049352791    4.22049352791   -6.38587007189   -2.00000000000
      4.22049352791    4.22049352791   -6.38587007189   -2.00000000000
      4.22049352791   -4.22049352791   -6.38587007189   -2.00000000000
     -4.22049352791   -4.22049352791   -6.38587007189   -2.00000000000
     -6.32954443328    6.32954443328   -0.05140086690    2.00000000000
      6.32954443328    6.32954443328   -0.05140086690    2.00000000000
      6.32954443328   -6.32954443328   -0.05140086690    2.00000000000
     -6.32954443328   -6.32954443328   -0.05140086690    2.00000000000
     -8.44098705582    2.10705287155   -2.14928009216    2.00000000000
     -2.10705287155    8.44098705582   -2.14928009216    2.00000000000
      2.10705287155    8.44098705582   -2.14928009216    2.00000000000
      8.44098705582    2.10705287155   -2.14928009216    2.00000000000
      8.44098705582   -2.10705287155   -2.14928009216    2.00000000000
      2.10705287155   -8.44098705582   -2.14928009216    2.00000000000
     -2.10705287155   -8.44098705582   -2.14928009216    2.00000000000
     -8.44098705582   -2.10705287155   -2.14928009216    2.00000000000
     -6.33074029186    0.00000000000   -6.38587007189    2.00000000000
      0.00000000000    6.33074029186   -6.38587007189    2.00000000000
      6.33074029186    0.00000000000   -6.38587007189    2.00000000000
      0.00000000000   -6.33074029186   -6.38587007189    2.00000000000
     -6.33028254133    6.33028254133   -2.15696791928   -2.00000000000
      6.33028254133    6.33028254133   -2.15696791928   -2.00000000000
      6.33028254133   -6.33028254133   -2.15696791928   -2.00000000000
     -6.33028254133   -6.33028254133   -2.15696791928   -2.00000000000
     -6.33074029186    2.11024676395   -6.38587007189   -2.00000000000
     -2.11024676395    6.33074029186   -6.38587007189   -2.00000000000
      2.11024676395    6.33074029186   -6.38587007189   -2.00000000000
      6.33074029186    2.11024676395   -6.38587007189   -2.00000000000
      6.33074029186   -2.11024676395   -6.38587007189   -2.00000000000
      2.11024676395   -6.33074029186   -6.38587007189   -2.00000000000
     -2.11024676395   -6.33074029186   -6.38587007189   -2.00000000000
     -6.33074029186   -2.11024676395   -6.38587007189   -2.00000000000
     -8.44098705582    4.22049352791   -0.05042534122    2.00000000000
     -4.22049352791    8.44098705582   -0.05042534122    2.00000000000
      4.22049352791    8.44098705582   -0.05042534122    2.00000000000
      8.44098705582    4.22049352791   -0.05042534122    2.00000000000
      8.44098705582   -4.22049352791   -0.05042534122    2.00000000000
      4.22049352791   -8.44098705582   -0.05042534122    2.00000000000
     -4.22049352791   -8.44098705582   -0.05042534122    2.00000000000
     -8.44098705582   -4.22049352791   -0.05042534122    2.00000000000
     -8.44098705582    0.00000000000   -4.27562330794    2.00000000000
      0.00000000000    8.44098705582   -4.27562330794    2.00000000000
      8.44098705582    0.00000000000   -4.27562330794    2.00000000000
      0.00000000000   -8.44098705582   -4.27562330794    2.00000000000
     -8.44098705582    4.22049352791   -2.15902521756   -2.00000000000
     -4.22049352791    8.44098705582   -2.15902521756   -2.00000000000
      4.22049352791    8.44098705582   -2.15902521756   -2.00000000000
      8.44098705582    4.22049352791   -2.15902521756   -2.00000000000
      8.44098705582   -4.22049352791   -2.15902521756   -2.00000000000
      4.22049352791   -8.44098705582   -2.15902521756   -2.00000000000
     -4.22049352791   -8.44098705582   -2.15902521756   -2.00000000000
     -8.44098705582   -4.22049352791   -2.15902521756   -2.00000000000
     -8.44098705582    2.11024676395   -4.27562330794   -2.00000000000
     -2.11024676395    8.44098705582   -4.27562330794   -2.00000000000
      2.11024676395    8.44098705582   -4.27562330794   -2.00000000000
      8.44098705582    2.11024676395   -4.27562330794   -2.00000000000
      8.44098705582   -2.11024676395   -4.27562330794   -2.00000000000
      2.11024676395   -8.44098705582   -4.27562330794   -2.00000000000
     -2.11024676395   -8.44098705582   -4.27562330794   -2.00000000000
     -8.44098705582   -2.11024676395   -4.27562330794   -2.00000000000
     -6.33074029186    6.33074029186   -4.27562330794    2.00000000000
      6.33074029186    6.33074029186   -4.27562330794    2.00000000000
      6.33074029186   -6.33074029186   -4.27562330794    2.00000000000
     -6.33074029186   -6.33074029186   -4.27562330794    2.00000000000
     -6.33074029186    4.22049352791   -6.38587007189    2.00000000000
     -4.22049352791    6.33074029186   -6.38587007189    2.00000000000
      4.22049352791    6.33074029186   -6.38587007189    2.00000000000
      6.33074029186    4.22049352791   -6.38587007189    2.00000000000
      6.33074029186   -4.22049352791   -6.38587007189    2.00000000000
      4.22049352791   -6.33074029186   -6.38587007189    2.00000000000
     -4.22049352791   -6.33074029186   -6.38587007189    2.00000000000
     -6.33074029186   -4.22049352791   -6.38587007189    2.00000000000
     -8.44098705582    4.22049352791   -4.27562330794    2.00000000000
     -4.22049352791    8.44098705582   -4.27562330794    2.00000000000
      4.22049352791    8.44098705582   -4.27562330794    2.00000000000
      8.44098705582    4.22049352791   -4.27562330794    2.00000000000
      8.44098705582   -4.22049352791   -4.27562330794    2.00000000000
      4.22049352791   -8.44098705582   -4.27562330794    2.00000000000
     -4.22049352791   -8.44098705582   -4.27562330794    2.00000000000
     -8.44098705582   -4.22049352791   -4.27562330794    2.00000000000
     -8.44098705582    6.32080279923   -0.00205593177   -2.00000000000
     -6.32080279923    8.44098705582   -0.00205593177   -2.00000000000
      6.32080279923    8.44098705582   -0.00205593177   -2.00000000000
      8.44098705582    6.32080279923   -0.00205593177   -2.00000000000
      8.44098705582   -6.32080279923   -0.00205593177   -2.00000000000
      6.32080279923   -8.44098705582   -0.00205593177   -2.00000000000
     -6.32080279923   -8.44098705582   -0.00205593177   -2.00000000000
     -8.44098705582   -6.32080279923   -0.00205593177   -2.00000000000
    -10.56117131241    0.00000000000   -0.00205593177   -2.00000000000
      0.00000000000   10.56117131241   -0.00205593177   -2.00000000000
     10.56117131241    0.00000000000   -0.00205593177   -2.00000000000
      0.00000000000  -10.56117131241   -0.00205593177   -2.00000000000
     -8.44098705582    0.00000000000   -6.38587007189   -2.00000000000
      0.00000000000    8.44098705582   -6.38587007189   -2.00000000000
      8.44098705582    0.00000000000   -6.38587007189   -2.00000000000
      0.00000000000   -8.44098705582   -6.38587007189   -2.00000000000
    -10.55242967836    2.11144262254   -0.05140086690    2.00000000000
     -2.11144262254   10.55242967836   -0.05140086690    2.00000000000
      2.11144262254   10.55242967836   -0.05140086690    2.00000000000
     10.55242967836    2.11144262254   -0.05140086690    2.00000000000
     10.55242967836   -2.11144262254   -0.05140086690    2.00000000000
      2.11144262254  -10.55242967836   -0.05140086690    2.00000000000
     -2.11144262254  -10.55242967836   -0.05140086690    2.00000000000
    -10.55242967836   -2.11144262254   -0.05140086690    2.00000000000
    -10.54803992736    0.00000000000   -2.14928009216    2.00000000000
      0.00000000000   10.54803992736   -2.14928009216    2.00000000000
     10.54803992736    0.00000000000   -2.14928009216    2.00000000000
      0.00000000000  -10.54803992736   -2.14928009216    2.00000000000
     -8.44098705582    6.33393418427   -2.14928009216    2.00000000000
     -6.33393418427    8.44098705582   -2.14928009216    2.00000000000
      6.33393418427    8.44098705582   -2.14928009216    2.00000000000
      8.44098705582    6.33393418427   -2.14928009216    2.00000000000
      8.44098705582   -6.33393418427   -2.14928009216    2.00000000000
      6.33393418427   -8.44098705582   -2.14928009216    2.00000000000
     -6.33393418427   -8.44098705582   -2.14928009216    2.00000000000
     -8.44098705582   -6.33393418427   -2.14928009216    2.00000000000
     -8.44098705582    2.11024676395   -6.38587007189    2.00000000000
     -2.11024676395    8.44098705582   -6.38587007189    2.00000000000
      2.11024676395    8.44098705582   -6.38587007189    2.00000000000
      8.44098705582    2.11024676395   -6.38587007189    2.00000000000
      8.44098705582   -2.11024676395   -6.38587007189    2.00000000000
      2.11024676395   -8.44098705582   -6.38587007189    2.00000000000
     -2.11024676395   -8.44098705582   -6.38587007189    2.00000000000
     -8.44098705582   -2.11024676395   -6.38587007189    2.00000000000
    -10.55169157031    2.11070451449   -2.15696791928   -2.00000000000
     -2.11070451449   10.55169157031   -2.15696791928   -2.00000000000
      2.11070451449   10.55169157031   -2.15696791928   -2.00000000000
     10.55169157031    2.11070451449   -2.15696791928   -2.00000000000
     10.55169157031   -2.11070451449   -2.15696791928   -2.00000000000
      2.11070451449  -10.55169157031   -2.15696791928   -2.00000000000
     -2.11070451449  -10.55169157031   -2.15696791928   -2.00000000000
    -10.55169157031   -2.11070451449   -2.15696791928   -2.00000000000
     -6.33074029186    6.33074029186   -6.38587007189   -2.00000000000
      6.33074029186    6.33074029186   -6.38587007189   -2.00000000000
      6.33074029186   -6.33074029186   -6.38587007189   -2.00000000000
     -6.33074029186   -6.33074029186   -6.38587007189   -2.00000000000
    -10.55307845305    4.22049352791    0.00000000000   -2.00000000000
     -4.22049352791   10.55307845305    0.00000000000   -2.00000000000
      4.22049352791   10.55307845305    0.00000000000   -2.00000000000
     10.55307845305    4.22049352791    0.00000000000   -2.00000000000
     10.55307845305   -4.22049352791    0.00000000000   -2.00000000000
      4.22049352791  -10.55307845305    0.00000000000   -2.00000000000
     -4.22049352791  -10.55307845305    0.00000000000   -2.00000000000
    -10.55307845305   -4.22049352791    0.00000000000   -2.00000000000
    -10.55123381977    0.00000000000   -4.27562330794   -2.00000000000
     -8.44098705582    6.33074029186   -4.27562330794   -2.00000000000
     -6.33074029186    8.44098705582   -4.27562330794   -2.00000000000
      0.00000000000   10.55123381977   -4.27562330794   -2.00000000000
      6.33074029186    8.44098705582   -4.27562330794   -2.00000000000
      8.44098705582    6.33074029186   -4.27562330794   -2.00000000000
     10.55123381977    0.00000000000   -4.27562330794   -2.00000000000
      8.44098705582   -6.33074029186   -4.27562330794   -2.00000000000
      6.33074029186   -8.44098705582   -4.27562330794   -2.00000000000
      0.00000000000  -10.55123381977   -4.27562330794   -2.00000000000
     -6.33074029186   -8.44098705582   -4.27562330794   -2.00000000000
     -8.44098705582   -6.33074029186   -4.27562330794   -2.00000000000
     -8.44098705582    4.22049352791   -6.38587007189   -2.00000000000
     -4.22049352791    8.44098705582   -6.38587007189   -2.00000000000
      4.22049352791    8.44098705582   -6.38587007189   -2.00000000000
      8.44098705582    4.22049352791   -6.38587007189   -2.00000000000
      8.44098705582   -4.22049352791   -6.38587007189   -2.00000000000
      4.22049352791   -8.44098705582   -6.38587007189   -2.00000000000
     -4.22049352791   -8.44098705582   -6.38587007189   -2.00000000000
     -8.44098705582   -4.22049352791   -6.38587007189   -2.00000000000
    -10.55072118099    4.22049352791   -2.15218714568    2.00000000000
     -4.22049352791   10.55072118099   -2.15218714568    2.00000000000
      4.22049352791   10.55072118099   -2.15218714568    2.00000000000
     10.55072118099    4.22049352791   -2.15218714568    2.00000000000
     10.55072118099   -4.22049352791   -2.15218714568    2.00000000000
      4.22049352791  -10.55072118099   -2.15218714568    2.00000000000
     -4.22049352791  -10.55072118099   -2.15218714568    2.00000000000
    -10.55072118099   -4.22049352791   -2.15218714568    2.00000000000
    -10.55123381977    2.11024676395   -4.27562330794    2.00000000000
     -2.11024676395   10.55123381977   -4.27562330794    2.00000000000
      2.11024676395   10.55123381977   -4.27562330794    2.00000000000
     10.55123381977    2.11024676395   -4.27562330794    2.00000000000
     10.55123381977   -2.11024676395   -4.27562330794    2.00000000000
      2.11024676395  -10.55123381977   -4.27562330794    2.00000000000
     -2.11024676395  -10.55123381977   -4.27562330794    2.00000000000
    -10.55123381977   -2.11024676395   -4.27562330794    2.00000000000
     -8.44098705582    8.44098705582   -0.00772802266    2.00000000000
      8.44098705582    8.44098705582   -0.00772802266    2.00000000000
      8.44098705582   -8.44098705582   -0.00772802266    2.00000000000
     -8.44098705582   -8.44098705582   -0.00772802266    2.00000000000
     -8.44098705582    8.44098705582   -2.14902768389   -2.00000000000
      8.44098705582    8.44098705582   -2.14902768389   -2.00000000000
      8.44098705582   -8.44098705582   -2.14902768389   -2.00000000000
     -8.44098705582   -8.44098705582   -2.14902768389   -2.00000000000
    -10.55123381977    4.22049352791   -4.27562330794   -2.00000000000
     -4.22049352791   10.55123381977   -4.27562330794   -2.00000000000
      4.22049352791   10.55123381977   -4.27562330794   -2.00000000000
     10.55123381977    4.22049352791   -4.27562330794   -2.00000000000
     10.55123381977   -4.22049352791   -4.27562330794   -2.00000000000
      4.22049352791  -10.55123381977   -4.27562330794   -2.00000000000
     -4.22049352791  -10.55123381977   -4.27562330794   -2.00000000000
    -10.55123381977   -4.22049352791   -4.27562330794   -2.00000000000
    -10.55242967836    6.32954443328   -0.05140086690    2.00000000000
     -6.32954443328   10.55242967836   -0.05140086690    2.00000000000
      6.32954443328   10.55242967836   -0.05140086690    2.00000000000
     10.55242967836    6.32954443328   -0.05140086690    2.00000000000
     10.55242967836   -6.32954443328   -0.05140086690    2.00000000000
      6.32954443328  -10.55242967836   -0.05140086690    2.00000000000
     -6.32954443328  -10.55242967836   -0.05140086690    2.00000000000
    -10.55242967836   -6.32954443328   -0.05140086690    2.00000000000
    -10.55123381977    0.00000000000   -6.38587007189    2.00000000000
     -8.44098705582    6.33074029186   -6.38587007189    2.00000000000
     -6.33074029186    8.44098705582   -6.38587007189    2.00000000000
      0.00000000000   10.55123381977   -6.38587007189    2.00000000000
      6.33074029186    8.44098705582   -6.38587007189    2.00000000000
      8.44098705582    6.33074029186   -6.38587007189    2.00000000000
     10.55123381977    0.00000000000   -6.38587007189    2.00000000000
      8.44098705582   -6.33074029186   -6.38587007189    2.00000000000
      6.33074029186   -8.44098705582   -6.38587007189    2.00000000000
      0.00000000000  -10.55123381977   -6.38587007189    2.00000000000
     -6.33074029186   -8.44098705582   -6.38587007189    2.00000000000
     -8.44098705582   -6.33074029186   -6.38587007189    2.00000000000
    -10.55169157031    6.33028254133   -2.15696791928   -2.00000000000
     -6.33028254133   10.55169157031   -2.15696791928   -2.00000000000
      6.33028254133   10.55169157031   -2.15696791928   -2.00000000000
     10.55169157031    6.33028254133   -2.15696791928   -2.00000000000
     10.55169157031   -6.33028254133   -2.15696791928   -2.00000000000
      6.33028254133  -10.55169157031   -2.15696791928   -2.00000000000
     -6.33028254133  -10.55169157031   -2.15696791928   -2.00000000000
    -10.55169157031   -6.33028254133   -2.15696791928   -2.00000000000
    -10.55123381977    2.11024676395   -6.38587007189   -2.00000000000
     -2.11024676395   10.55123381977   -6.38587007189   -2.00000000000
      2.11024676395   10.55123381977   -6.38587007189   -2.00000000000
     10.55123381977    2.11024676395   -6.38587007189   -2.00000000000
     10.55123381977   -2.11024676395   -6.38587007189   -2.00000000000
      2.11024676395  -10.55123381977   -6.38587007189   -2.00000000000
     -2.11024676395  -10.55123381977   -6.38587007189   -2.00000000000
    -10.55123381977   -2.11024676395   -6.38587007189   -2.00000000000
    -12.66148058373    0.00000000000   -0.05042534122    2.00000000000
      0.00000000000   12.66148058373   -0.05042534122    2.00000000000
     12.66148058373    0.00000000000   -0.05042534122    2.00000000000
      0.00000000000  -12.66148058373   -0.05042534122    2.00000000000
     -8.44098705582    8.44098705582   -4.27562330794    2.00000000000
      8.44098705582    8.44098705582   -4.27562330794    2.00000000000
      8.44098705582   -8.44098705582   -4.27562330794    2.00000000000
     -8.44098705582   -8.44098705582   -4.27562330794    2.00000000000
    -12.66148058373    2.11209139723    0.00000000000   -2.00000000000
     -2.11209139723   12.66148058373    0.00000000000   -2.00000000000
      2.11209139723   12.66148058373    0.00000000000   -2.00000000000
     12.66148058373    2.11209139723    0.00000000000   -2.00000000000
     12.66148058373   -2.11209139723    0.00000000000   -2.00000000000
      2.11209139723  -12.66148058373    0.00000000000   -2.00000000000
     -2.11209139723  -12.66148058373    0.00000000000   -2.00000000000
    -12.66148058373   -2.11209139723    0.00000000000   -2.00000000000
    -12.66148058373    0.00000000000   -2.15902521756   -2.00000000000
      0.00000000000   12.66148058373   -2.15902521756   -2.00000000000
     12.66148058373    0.00000000000   -2.15902521756   -2.00000000000
      0.00000000000  -12.66148058373   -2.15902521756   -2.00000000000
    -12.66148058373    2.10973412517   -2.15218714568    2.00000000000
     -2.10973412517   12.66148058373   -2.15218714568    2.00000000000
      2.10973412517   12.66148058373   -2.15218714568    2.00000000000
     12.66148058373    2.10973412517   -2.15218714568    2.00000000000
     12.66148058373   -2.10973412517   -2.15218714568    2.00000000000
      2.10973412517  -12.66148058373   -2.15218714568    2.00000000000
     -2.10973412517  -12.66148058373   -2.15218714568    2.00000000000
    -12.66148058373   -2.10973412517   -2.15218714568    2.00000000000
    -10.55123381977    6.33074029186   -4.27562330794    2.00000000000
     -6.33074029186   10.55123381977   -4.27562330794    2.00000000000
      6.33074029186   10.55123381977   -4.27562330794    2.00000000000
     10.55123381977    6.33074029186   -4.27562330794    2.00000000000
     10.55123381977   -6.33074029186   -4.27562330794    2.00000000000
      6.33074029186  -10.55123381977   -4.27562330794    2.00000000000
     -6.33074029186  -10.55123381977   -4.27562330794    2.00000000000
    -10.55123381977   -6.33074029186   -4.27562330794    2.00000000000
    -10.55123381977    4.22049352791   -6.38587007189    2.00000000000
     -4.22049352791   10.55123381977   -6.38587007189    2.00000000000
      4.22049352791   10.55123381977   -6.38587007189    2.00000000000
     10.55123381977    4.22049352791   -6.38587007189    2.00000000000
     10.55123381977   -4.22049352791   -6.38587007189    2.00000000000
      4.22049352791  -10.55123381977   -6.38587007189    2.00000000000
     -4.22049352791  -10.55123381977   -6.38587007189    2.00000000000
    -10.55123381977   -4.22049352791   -6.38587007189    2.00000000000
    -12.66148058373    4.22049352791   -0.04765173215    2.00000000000
     -4.22049352791   12.66148058373   -0.04765173215    2.00000000000
      4.22049352791   12.66148058373   -0.04765173215    2.00000000000
     12.66148058373    4.22049352791   -0.04765173215    2.00000000000
     12.66148058373   -4.22049352791   -0.04765173215    2.00000000000
      4.22049352791  -12.66148058373   -0.04765173215    2.00000000000
     -4.22049352791  -12.66148058373   -0.04765173215    2.00000000000
    -12.66148058373   -4.22049352791   -0.04765173215    2.00000000000
    -12.66148058373    0.00000000000   -4.27562330794    2.00000000000
      0.00000000000   12.66148058373   -4.27562330794    2.00000000000
     12.66148058373    0.00000000000   -4.27562330794    2.00000000000
      0.00000000000  -12.66148058373   -4.27562330794    2.00000000000
    -12.66148058373    4.22049352791   -2.15801787533   -2.00000000000
     -4.22049352791   12.66148058373   -2.15801787533   -2.00000000000
      4.22049352791   12.66148058373   -2.15801787533   -2.00000000000
     12.66148058373    4.22049352791   -2.15801787533   -2.00000000000
     12.66148058373   -4.22049352791   -2.15801787533   -2.00000000000
      4.22049352791  -12.66148058373   -2.15801787533   -2.00000000000
     -4.22049352791  -12.66148058373   -2.15801787533   -2.00000000000
    -12.66148058373   -4.22049352791   -2.15801787533   -2.00000000000
    -10.56117131241    8.44098705582   -0.00205593177   -2.00000000000
     -8.44098705582   10.56117131241   -0.00205593177   -2.00000000000
      8.44098705582   10.56117131241   -0.00205593177   -2.00000000000
     10.56117131241    8.44098705582   -0.00205593177   -2.00000000000
     10.56117131241   -8.44098705582   -0.00205593177   -2.00000000000
      8.44098705582  -10.56117131241   -0.00205593177   -2.00000000000
     -8.44098705582  -10.56117131241   -0.00205593177   -2.00000000000
    -10.56117131241   -8.44098705582   -0.00205593177   -2.00000000000
    -12.66148058373    2.11024676395   -4.27562330794   -2.00000000000
     -2.11024676395   12.66148058373   -4.27562330794   -2.00000000000
      2.11024676395   12.66148058373   -4.27562330794   -2.00000000000
     12.66148058373    2.11024676395   -4.27562330794   -2.00000000000
     12.66148058373   -2.11024676395   -4.27562330794   -2.00000000000
      2.11024676395  -12.66148058373   -4.27562330794   -2.00000000000
     -2.11024676395  -12.66148058373   -4.27562330794   -2.00000000000
    -12.66148058373   -2.11024676395   -4.27562330794   -2.00000000000
     -8.44098705582    8.44098705582   -6.38587007189   -2.00000000000
      8.44098705582    8.44098705582   -6.38587007189   -2.00000000000
      8.44098705582   -8.44098705582   -6.38587007189   -2.00000000000
     -8.44098705582   -8.44098705582   -6.38587007189   -2.00000000000
    -10.54803992736    8.44098705582   -2.14928009216    2.00000000000
     -8.44098705582   10.54803992736   -2.14928009216    2.00000000000
      8.44098705582   10.54803992736   -2.14928009216    2.00000000000
     10.54803992736    8.44098705582   -2.14928009216    2.00000000000
     10.54803992736   -8.44098705582   -2.14928009216    2.00000000000
      8.44098705582  -10.54803992736   -2.14928009216    2.00000000000
     -8.44098705582  -10.54803992736   -2.14928009216    2.00000000000
    -10.54803992736   -8.44098705582   -2.14928009216    2.00000000000
    -10.55123381977    6.33074029186   -6.38587007189   -2.00000000000
     -6.33074029186   10.55123381977   -6.38587007189   -2.00000000000
      6.33074029186   10.55123381977   -6.38587007189   -2.00000000000
     10.55123381977    6.33074029186   -6.38587007189   -2.00000000000
     10.55123381977   -6.33074029186   -6.38587007189   -2.00000000000
      6.33074029186  -10.55123381977   -6.38587007189   -2.00000000000
     -6.33074029186  -10.55123381977   -6.38587007189   -2.00000000000
    -10.55123381977   -6.33074029186   -6.38587007189   -2.00000000000
    -12.66148058373    4.22049352791   -4.27562330794    2.00000000000
     -4.22049352791   12.66148058373   -4.27562330794    2.00000000000
      4.22049352791   12.66148058373   -4.27562330794    2.00000000000
     12.66148058373    4.22049352791   -4.27562330794    2.00000000000
     12.66148058373   -4.22049352791   -4.27562330794    2.00000000000
      4.22049352791  -12.66148058373   -4.27562330794    2.00000000000
     -4.22049352791  -12.66148058373   -4.27562330794    2.00000000000
    -12.66148058373   -4.22049352791   -4.27562330794    2.00000000000
    -12.66148058373    6.32889565859    0.00000000000   -2.00000000000
     -6.32889565859   12.66148058373    0.00000000000   -2.00000000000
      6.32889565859   12.66148058373    0.00000000000   -2.00000000000
     12.66148058373    6.32889565859    0.00000000000   -2.00000000000
     12.66148058373   -6.32889565859    0.00000000000   -2.00000000000
      6.32889565859  -12.66148058373    0.00000000000   -2.00000000000
     -6.32889565859  -12.66148058373    0.00000000000   -2.00000000000
    -12.66148058373   -6.32889565859    0.00000000000   -2.00000000000
    -10.55123381977    8.44098705582   -4.27562330794   -2.00000000000
     -8.44098705582   10.55123381977   -4.27562330794   -2.00000000000
      8.44098705582   10.55123381977   -4.27562330794   -2.00000000000
     10.55123381977    8.44098705582   -4.27562330794   -2.00000000000
     10.55123381977   -8.44098705582   -4.27562330794   -2.00000000000
      8.44098705582  -10.55123381977   -4.27562330794   -2.00000000000
     -8.44098705582  -10.55123381977   -4.27562330794   -2.00000000000
    -10.55123381977   -8.44098705582   -4.27562330794   -2.00000000000
    -12.66148058373    0.00000000000   -6.38587007189   -2.00000000000
      0.00000000000   12.66148058373   -6.38587007189   -2.00000000000
     12.66148058373    0.00000000000   -6.38587007189   -2.00000000000
      0.00000000000  -12.66148058373   -6.38587007189   -2.00000000000
    -12.66148058373    6.33125293065   -2.15218714568    2.00000000000
     -6.33125293065   12.66148058373   -2.15218714568    2.00000000000
      6.33125293065   12.66148058373   -2.15218714568    2.00000000000
     12.66148058373    6.33125293065   -2.15218714568    2.00000000000
     12.66148058373   -6.33125293065   -2.15218714568    2.00000000000
      6.33125293065  -12.66148058373   -2.15218714568    2.00000000000
     -6.33125293065  -12.66148058373   -2.15218714568    2.00000000000
    -12.66148058373   -6.33125293065   -2.15218714568    2.00000000000
    -12.66148058373    2.11024676395   -6.38587007189    2.00000000000
     -2.11024676395   12.66148058373   -6.38587007189    2.00000000000
      2.11024676395   12.66148058373   -6.38587007189    2.00000000000
     12.66148058373    2.11024676395   -6.38587007189    2.00000000000
     12.66148058373   -2.11024676395   -6.38587007189    2.00000000000
      2.11024676395  -12.66148058373   -6.38587007189    2.00000000000
     -2.11024676395  -12.66148058373   -6.38587007189    2.00000000000
    -12.66148058373   -2.11024676395   -6.38587007189    2.00000000000
    -14.76178985505    0.00000000000   -0.00205593177   -2.00000000000
      0.00000000000   14.76178985505   -0.00205593177   -2.00000000000
     14.76178985505    0.00000000000   -0.00205593177   -2.00000000000
      0.00000000000  -14.76178985505   -0.00205593177   -2.00000000000
    -12.66148058373    6.33074029186   -4.27562330794   -2.00000000000
     -6.33074029186   12.66148058373   -4.27562330794   -2.00000000000
      6.33074029186   12.66148058373   -4.27562330794   -2.00000000000
     12.66148058373    6.33074029186   -4.27562330794   -2.00000000000
     12.66148058373   -6.33074029186   -4.27562330794   -2.00000000000
      6.33074029186  -12.66148058373   -4.27562330794   -2.00000000000
     -6.33074029186  -12.66148058373   -4.27562330794   -2.00000000000
    -12.66148058373   -6.33074029186   -4.27562330794   -2.00000000000
    -12.66148058373    4.22049352791   -6.38587007189   -2.00000000000
     -4.22049352791   12.66148058373   -6.38587007189   -2.00000000000
      4.22049352791   12.66148058373   -6.38587007189   -2.00000000000
     12.66148058373    4.22049352791   -6.38587007189   -2.00000000000
     12.66148058373   -4.22049352791   -6.38587007189   -2.00000000000
      4.22049352791  -12.66148058373   -6.38587007189   -2.00000000000
     -4.22049352791  -12.66148058373   -6.38587007189   -2.00000000000
    -12.66148058373   -4.22049352791   -6.38587007189   -2.00000000000
    -14.77053148910    2.11144262254   -0.05140086690    2.00000000000
     -2.11144262254   14.77053148910   -0.05140086690    2.00000000000
      2.11144262254   14.77053148910   -0.05140086690    2.00000000000
     14.77053148910    2.11144262254   -0.05140086690    2.00000000000
     14.77053148910   -2.11144262254   -0.05140086690    2.00000000000
      2.11144262254  -14.77053148910   -0.05140086690    2.00000000000
     -2.11144262254  -14.77053148910   -0.05140086690    2.00000000000
    -14.77053148910   -2.11144262254   -0.05140086690    2.00000000000
    -10.55242967836   10.55242967836   -0.05140086690    2.00000000000
     10.55242967836   10.55242967836   -0.05140086690    2.00000000000
     10.55242967836  -10.55242967836   -0.05140086690    2.00000000000
    -10.55242967836  -10.55242967836   -0.05140086690    2.00000000000
    -14.77492124009    0.00000000000   -2.14928009216    2.00000000000
      0.00000000000   14.77492124009   -2.14928009216    2.00000000000
     14.77492124009    0.00000000000   -2.14928009216    2.00000000000
      0.00000000000  -14.77492124009   -2.14928009216    2.00000000000
    -10.55123381977    8.44098705582   -6.38587007189    2.00000000000
     -8.44098705582   10.55123381977   -6.38587007189    2.00000000000
      8.44098705582   10.55123381977   -6.38587007189    2.00000000000
     10.55123381977    8.44098705582   -6.38587007189    2.00000000000
     10.55123381977   -8.44098705582   -6.38587007189    2.00000000000
      8.44098705582  -10.55123381977   -6.38587007189    2.00000000000
     -8.44098705582  -10.55123381977   -6.38587007189    2.00000000000
    -10.55123381977   -8.44098705582   -6.38587007189    2.00000000000
    -14.77126959714    2.11070451449   -2.15696791928   -2.00000000000
     -2.11070451449   14.77126959714   -2.15696791928   -2.00000000000
      2.11070451449   14.77126959714   -2.15696791928   -2.00000000000
     14.77126959714    2.11070451449   -2.15696791928   -2.00000000000
     14.77126959714   -2.11070451449   -2.15696791928   -2.00000000000
      2.11070451449  -14.77126959714   -2.15696791928   -2.00000000000
     -2.11070451449  -14.77126959714   -2.15696791928   -2.00000000000
    -14.77126959714   -2.11070451449   -2.15696791928   -2.00000000000
    -10.55169157031   10.55169157031   -2.15696791928   -2.00000000000
     10.55169157031   10.55169157031   -2.15696791928   -2.00000000000
     10.55169157031  -10.55169157031   -2.15696791928   -2.00000000000
    -10.55169157031  -10.55169157031   -2.15696791928   -2.00000000000
    -12.66148058373    8.44098705582   -0.05042534122    2.00000000000
     -8.44098705582   12.66148058373   -0.05042534122    2.00000000000
      8.44098705582   12.66148058373   -0.05042534122    2.00000000000
     12.66148058373    8.44098705582   -0.05042534122    2.00000000000
     12.66148058373   -8.44098705582   -0.05042534122    2.00000000000
      8.44098705582  -12.66148058373   -0.05042534122    2.00000000000
     -8.44098705582  -12.66148058373   -0.05042534122    2.00000000000
    -12.66148058373   -8.44098705582   -0.05042534122    2.00000000000
    -14.76988271440    4.22049352791    0.00000000000   -2.00000000000
     -4.22049352791   14.76988271440    0.00000000000   -2.00000000000
      4.22049352791   14.76988271440    0.00000000000   -2.00000000000
     14.76988271440    4.22049352791    0.00000000000   -2.00000000000
     14.76988271440   -4.22049352791    0.00000000000   -2.00000000000
      4.22049352791  -14.76988271440    0.00000000000   -2.00000000000
     -4.22049352791  -14.76988271440    0.00000000000   -2.00000000000
    -14.76988271440   -4.22049352791    0.00000000000   -2.00000000000
    -12.66148058373    8.44098705582   -2.15902521756   -2.00000000000
     -8.44098705582   12.66148058373   -2.15902521756   -2.00000000000
      8.44098705582   12.66148058373   -2.15902521756   -2.00000000000
     12.66148058373    8.44098705582   -2.15902521756   -2.00000000000
     12.66148058373   -8.44098705582   -2.15902521756   -2.00000000000
      8.44098705582  -12.66148058373   -2.15902521756   -2.00000000000
     -8.44098705582  -12.66148058373   -2.15902521756   -2.00000000000
    -12.66148058373   -8.44098705582   -2.15902521756   -2.00000000000
    -14.77172734768    0.00000000000   -4.27562330794   -2.00000000000
      0.00000000000   14.77172734768   -4.27562330794   -2.00000000000
     14.77172734768    0.00000000000   -4.27562330794   -2.00000000000
      0.00000000000  -14.77172734768   -4.27562330794   -2.00000000000
    -14.77223998647    4.22049352791   -2.15218714568    2.00000000000
     -4.22049352791   14.77223998647   -2.15218714568    2.00000000000
      4.22049352791   14.77223998647   -2.15218714568    2.00000000000
     14.77223998647    4.22049352791   -2.15218714568    2.00000000000
     14.77223998647   -4.22049352791   -2.15218714568    2.00000000000
      4.22049352791  -14.77223998647   -2.15218714568    2.00000000000
     -4.22049352791  -14.77223998647   -2.15218714568    2.00000000000
    -14.77223998647   -4.22049352791   -2.15218714568    2.00000000000
    -14.77172734768    2.11024676395   -4.27562330794    2.00000000000
    -10.55123381977   10.55123381977   -4.27562330794    2.00000000000
     -2.11024676395   14.77172734768   -4.27562330794    2.00000000000
      2.11024676395   14.77172734768   -4.27562330794    2.00000000000
     10.55123381977   10.55123381977   -4.27562330794    2.00000000000
     14.77172734768    2.11024676395   -4.27562330794    2.00000000000
     14.77172734768   -2.11024676395   -4.27562330794    2.00000000000
     10.55123381977  -10.55123381977   -4.27562330794    2.00000000000
      2.11024676395  -14.77172734768   -4.27562330794    2.00000000000
     -2.11024676395  -14.77172734768   -4.27562330794    2.00000000000
    -10.55123381977  -10.55123381977   -4.27562330794    2.00000000000
    -14.77172734768   -2.11024676395   -4.27562330794    2.00000000000
    -12.66148058373    6.33074029186   -6.38587007189    2.00000000000
     -6.33074029186   12.66148058373   -6.38587007189    2.00000000000
      6.33074029186   12.66148058373   -6.38587007189    2.00000000000
     12.66148058373    6.33074029186   -6.38587007189    2.00000000000
     12.66148058373   -6.33074029186   -6.38587007189    2.00000000000
      6.33074029186  -12.66148058373   -6.38587007189    2.00000000000
     -6.33074029186  -12.66148058373   -6.38587007189    2.00000000000
    -12.66148058373   -6.33074029186   -6.38587007189    2.00000000000
    -12.66148058373    8.44098705582   -4.27562330794    2.00000000000
     -8.44098705582   12.66148058373   -4.27562330794    2.00000000000
      8.44098705582   12.66148058373   -4.27562330794    2.00000000000
     12.66148058373    8.44098705582   -4.27562330794    2.00000000000
     12.66148058373   -8.44098705582   -4.27562330794    2.00000000000
      8.44098705582  -12.66148058373   -4.27562330794    2.00000000000
     -8.44098705582  -12.66148058373   -4.27562330794    2.00000000000
    -12.66148058373   -8.44098705582   -4.27562330794    2.00000000000
    -14.77172734768    4.22049352791   -4.27562330794   -2.00000000000
     -4.22049352791   14.77172734768   -4.27562330794   -2.00000000000
      4.22049352791   14.77172734768   -4.27562330794   -2.00000000000
     14.77172734768    4.22049352791   -4.27562330794   -2.00000000000
     14.77172734768   -4.22049352791   -4.27562330794   -2.00000000000
      4.22049352791  -14.77172734768   -4.27562330794   -2.00000000000
     -4.22049352791  -14.77172734768   -4.27562330794   -2.00000000000
    -14.77172734768   -4.22049352791   -4.27562330794   -2.00000000000
    -14.77053148910    6.32954443328   -0.05140086690    2.00000000000
     -6.32954443328   14.77053148910   -0.05140086690    2.00000000000
      6.32954443328   14.77053148910   -0.05140086690    2.00000000000
     14.77053148910    6.32954443328   -0.05140086690    2.00000000000
     14.77053148910   -6.32954443328   -0.05140086690    2.00000000000
      6.32954443328  -14.77053148910   -0.05140086690    2.00000000000
     -6.32954443328  -14.77053148910   -0.05140086690    2.00000000000
    -14.77053148910   -6.32954443328   -0.05140086690    2.00000000000
    -14.77172734768    0.00000000000   -6.38587007189    2.00000000000
      0.00000000000   14.77172734768   -6.38587007189    2.00000000000
     14.77172734768    0.00000000000   -6.38587007189    2.00000000000
      0.00000000000  -14.77172734768   -6.38587007189    2.00000000000
    -14.77126959714    6.33028254133   -2.15696791928   -2.00000000000
     -6.33028254133   14.77126959714   -2.15696791928   -2.00000000000
      6.33028254133   14.77126959714   -2.15696791928   -2.00000000000
     14.77126959714    6.33028254133   -2.15696791928   -2.00000000000
     14.77126959714   -6.33028254133   -2.15696791928   -2.00000000000
      6.33028254133  -14.77126959714   -2.15696791928   -2.00000000000
     -6.33028254133  -14.77126959714   -2.15696791928   -2.00000000000
    -14.77126959714   -6.33028254133   -2.15696791928   -2.00000000000
    -14.77172734768    2.11024676395   -6.38587007189   -2.00000000000
    -10.55123381977   10.55123381977   -6.38587007189   -2.00000000000
     -2.11024676395   14.77172734768   -6.38587007189   -2.00000000000
      2.11024676395   14.77172734768   -6.38587007189   -2.00000000000
     10.55123381977   10.55123381977   -6.38587007189   -2.00000000000
     14.77172734768    2.11024676395   -6.38587007189   -2.00000000000
     14.77172734768   -2.11024676395   -6.38587007189   -2.00000000000
     10.55123381977  -10.55123381977   -6.38587007189   -2.00000000000
      2.11024676395  -14.77172734768   -6.38587007189   -2.00000000000
     -2.11024676395  -14.77172734768   -6.38587007189   -2.00000000000
    -10.55123381977  -10.55123381977   -6.38587007189   -2.00000000000
    -14.77172734768   -2.11024676395   -6.38587007189   -2.00000000000
    -12.66148058373   10.55307845305    0.00000000000   -2.00000000000
    -10.55307845305   12.66148058373    0.00000000000   -2.00000000000
     10.55307845305   12.66148058373    0.00000000000   -2.00000000000
     12.66148058373   10.55307845305    0.00000000000   -2.00000000000
     12.66148058373  -10.55307845305    0.00000000000   -2.00000000000
     10.55307845305  -12.66148058373    0.00000000000   -2.00000000000
    -10.55307845305  -12.66148058373    0.00000000000   -2.00000000000
    -12.66148058373  -10.55307845305    0.00000000000   -2.00000000000
    -12.66148058373    8.44098705582   -6.38587007189   -2.00000000000
     -8.44098705582   12.66148058373   -6.38587007189   -2.00000000000
      8.44098705582   12.66148058373   -6.38587007189   -2.00000000000
     12.66148058373    8.44098705582   -6.38587007189   -2.00000000000
     12.66148058373   -8.44098705582   -6.38587007189   -2.00000000000
      8.44098705582  -12.66148058373   -6.38587007189   -2.00000000000
     -8.44098705582  -12.66148058373   -6.38587007189   -2.00000000000
    -12.66148058373   -8.44098705582   -6.38587007189   -2.00000000000
    -12.66148058373   10.55072118099   -2.15218714568    2.00000000000
    -10.55072118099   12.66148058373   -2.15218714568    2.00000000000
     10.55072118099   12.66148058373   -2.15218714568    2.00000000000
     12.66148058373   10.55072118099   -2.15218714568    2.00000000000
     12.66148058373  -10.55072118099   -2.15218714568    2.00000000000
     10.55072118099  -12.66148058373   -2.15218714568    2.00000000000
    -10.55072118099  -12.66148058373   -2.15218714568    2.00000000000
    -12.66148058373  -10.55072118099   -2.15218714568    2.00000000000
    -14.77172734768    6.33074029186   -4.27562330794    2.00000000000
     -6.33074029186   14.77172734768   -4.27562330794    2.00000000000
      6.33074029186   14.77172734768   -4.27562330794    2.00000000000
     14.77172734768    6.33074029186   -4.27562330794    2.00000000000
     14.77172734768   -6.33074029186   -4.27562330794    2.00000000000
      6.33074029186  -14.77172734768   -4.27562330794    2.00000000000
     -6.33074029186  -14.77172734768   -4.27562330794    2.00000000000
    -14.77172734768   -6.33074029186   -4.27562330794    2.00000000000
    -14.77172734768    4.22049352791   -6.38587007189    2.00000000000
     -4.22049352791   14.77172734768   -6.38587007189    2.00000000000
      4.22049352791   14.77172734768   -6.38587007189    2.00000000000
     14.77172734768    4.22049352791   -6.38587007189    2.00000000000
     14.77172734768   -4.22049352791   -6.38587007189    2.00000000000
      4.22049352791  -14.77172734768   -6.38587007189    2.00000000000
     -4.22049352791  -14.77172734768   -6.38587007189    2.00000000000
    -14.77172734768   -4.22049352791   -6.38587007189    2.00000000000
    -16.88197411163    0.00000000000   -0.00772802266    2.00000000000
      0.00000000000   16.88197411163   -0.00772802266    2.00000000000
     16.88197411163    0.00000000000   -0.00772802266    2.00000000000
      0.00000000000  -16.88197411163   -0.00772802266    2.00000000000
    -14.76178985505    8.44098705582   -0.00205593177   -2.00000000000
     -8.44098705582   14.76178985505   -0.00205593177   -2.00000000000
      8.44098705582   14.76178985505   -0.00205593177   -2.00000000000
     14.76178985505    8.44098705582   -0.00205593177   -2.00000000000
     14.76178985505   -8.44098705582   -0.00205593177   -2.00000000000
      8.44098705582  -14.76178985505   -0.00205593177   -2.00000000000
     -8.44098705582  -14.76178985505   -0.00205593177   -2.00000000000
    -14.76178985505   -8.44098705582   -0.00205593177   -2.00000000000
    -16.88197411163    2.12018425659   -0.00205593177   -2.00000000000
     -2.12018425659   16.88197411163   -0.00205593177   -2.00000000000
      2.12018425659   16.88197411163   -0.00205593177   -2.00000000000
     16.88197411163    2.12018425659   -0.00205593177   -2.00000000000
     16.88197411163   -2.12018425659   -0.00205593177   -2.00000000000
      2.12018425659  -16.88197411163   -0.00205593177   -2.00000000000
     -2.12018425659  -16.88197411163   -0.00205593177   -2.00000000000
    -16.88197411163   -2.12018425659   -0.00205593177   -2.00000000000
    -16.88197411163    0.00000000000   -2.14902768389   -2.00000000000
      0.00000000000   16.88197411163   -2.14902768389   -2.00000000000
     16.88197411163    0.00000000000   -2.14902768389   -2.00000000000
      0.00000000000  -16.88197411163   -2.14902768389   -2.00000000000
    -12.66148058373   10.55123381977   -4.27562330794   -2.00000000000
    -10.55123381977   12.66148058373   -4.27562330794   -2.00000000000
     10.55123381977   12.66148058373   -4.27562330794   -2.00000000000
     12.66148058373   10.55123381977   -4.27562330794   -2.00000000000
     12.66148058373  -10.55123381977   -4.27562330794   -2.00000000000
     10.55123381977  -12.66148058373   -4.27562330794   -2.00000000000
    -10.55123381977  -12.66148058373   -4.27562330794   -2.00000000000
    -12.66148058373  -10.55123381977   -4.27562330794   -2.00000000000
    -16.88197411163    2.10705287155   -2.14928009216    2.00000000000
     -2.10705287155   16.88197411163   -2.14928009216    2.00000000000
      2.10705287155   16.88197411163   -2.14928009216    2.00000000000
     16.88197411163    2.10705287155   -2.14928009216    2.00000000000
     16.88197411163   -2.10705287155   -2.14928009216    2.00000000000
      2.10705287155  -16.88197411163   -2.14928009216    2.00000000000
     -2.10705287155  -16.88197411163   -2.14928009216    2.00000000000
    -16.88197411163   -2.10705287155   -2.14928009216    2.00000000000
    -14.77492124009    8.44098705582   -2.14928009216    2.00000000000
     -8.44098705582   14.77492124009   -2.14928009216    2.00000000000
      8.44098705582   14.77492124009   -2.14928009216    2.00000000000
     14.77492124009    8.44098705582   -2.14928009216    2.00000000000
     14.77492124009   -8.44098705582   -2.14928009216    2.00000000000
      8.44098705582  -14.77492124009   -2.14928009216    2.00000000000
     -8.44098705582  -14.77492124009   -2.14928009216    2.00000000000
    -14.77492124009   -8.44098705582   -2.14928009216    2.00000000000
    -14.77172734768    6.33074029186   -6.38587007189   -2.00000000000
     -6.33074029186   14.77172734768   -6.38587007189   -2.00000000000
      6.33074029186   14.77172734768   -6.38587007189   -2.00000000000
     14.77172734768    6.33074029186   -6.38587007189   -2.00000000000
     14.77172734768   -6.33074029186   -6.38587007189   -2.00000000000
      6.33074029186  -14.77172734768   -6.38587007189   -2.00000000000
     -6.33074029186  -14.77172734768   -6.38587007189   -2.00000000000
    -14.77172734768   -6.33074029186   -6.38587007189   -2.00000000000
    -16.88197411163    4.22049352791   -0.05042534122    2.00000000000
     -4.22049352791   16.88197411163   -0.05042534122    2.00000000000
      4.22049352791   16.88197411163   -0.05042534122    2.00000000000
     16.88197411163    4.22049352791   -0.05042534122    2.00000000000
     16.88197411163   -4.22049352791   -0.05042534122    2.00000000000
      4.22049352791  -16.88197411163   -0.05042534122    2.00000000000
     -4.22049352791  -16.88197411163   -0.05042534122    2.00000000000
    -16.88197411163   -4.22049352791   -0.05042534122    2.00000000000
    -16.88197411163    0.00000000000   -4.27562330794    2.00000000000
      0.00000000000   16.88197411163   -4.27562330794    2.00000000000
     16.88197411163    0.00000000000   -4.27562330794    2.00000000000
      0.00000000000  -16.88197411163   -4.27562330794    2.00000000000
    -16.88197411163    4.22049352791   -2.15902521756   -2.00000000000
     -4.22049352791   16.88197411163   -2.15902521756   -2.00000000000
      4.22049352791   16.88197411163   -2.15902521756   -2.00000000000
     16.88197411163    4.22049352791   -2.15902521756   -2.00000000000
     16.88197411163   -4.22049352791   -2.15902521756   -2.00000000000
      4.22049352791  -16.88197411163   -2.15902521756   -2.00000000000
     -4.22049352791  -16.88197411163   -2.15902521756   -2.00000000000
    -16.88197411163   -4.22049352791   -2.15902521756   -2.00000000000
    -16.88197411163    2.11024676395   -4.27562330794   -2.00000000000
    -14.77172734768    8.44098705582   -4.27562330794   -2.00000000000
     -8.44098705582   14.77172734768   -4.27562330794   -2.00000000000
     -2.11024676395   16.88197411163   -4.27562330794   -2.00000000000
      2.11024676395   16.88197411163   -4.27562330794   -2.00000000000
      8.44098705582   14.77172734768   -4.27562330794   -2.00000000000
     14.77172734768    8.44098705582   -4.27562330794   -2.00000000000
     16.88197411163    2.11024676395   -4.27562330794   -2.00000000000
     16.88197411163   -2.11024676395   -4.27562330794   -2.00000000000
     14.77172734768   -8.44098705582   -4.27562330794   -2.00000000000
      8.44098705582  -14.77172734768   -4.27562330794   -2.00000000000
      2.11024676395  -16.88197411163   -4.27562330794   -2.00000000000
     -2.11024676395  -16.88197411163   -4.27562330794   -2.00000000000
     -8.44098705582  -14.77172734768   -4.27562330794   -2.00000000000
    -14.77172734768   -8.44098705582   -4.27562330794   -2.00000000000
    -16.88197411163   -2.11024676395   -4.27562330794   -2.00000000000
    -12.66148058373   10.55123381977   -6.38587007189    2.00000000000
    -10.55123381977   12.66148058373   -6.38587007189    2.00000000000
     10.55123381977   12.66148058373   -6.38587007189    2.00000000000
     12.66148058373   10.55123381977   -6.38587007189    2.00000000000
     12.66148058373  -10.55123381977   -6.38587007189    2.00000000000
     10.55123381977  -12.66148058373   -6.38587007189    2.00000000000
    -10.55123381977  -12.66148058373   -6.38587007189    2.00000000000
    -12.66148058373  -10.55123381977   -6.38587007189    2.00000000000
    -12.66148058373   12.66148058373   -0.04765173215    2.00000000000
     12.66148058373   12.66148058373   -0.04765173215    2.00000000000
     12.66148058373  -12.66148058373   -0.04765173215    2.00000000000
    -12.66148058373  -12.66148058373   -0.04765173215    2.00000000000
    -16.88197411163    4.22049352791   -4.27562330794    2.00000000000
     -4.22049352791   16.88197411163   -4.27562330794    2.00000000000
      4.22049352791   16.88197411163   -4.27562330794    2.00000000000
     16.88197411163    4.22049352791   -4.27562330794    2.00000000000
     16.88197411163   -4.22049352791   -4.27562330794    2.00000000000
      4.22049352791  -16.88197411163   -4.27562330794    2.00000000000
     -4.22049352791  -16.88197411163   -4.27562330794    2.00000000000
    -16.88197411163   -4.22049352791   -4.27562330794    2.00000000000
    -16.88197411163    6.32080279923   -0.00205593177   -2.00000000000
     -6.32080279923   16.88197411163   -0.00205593177   -2.00000000000
      6.32080279923   16.88197411163   -0.00205593177   -2.00000000000
     16.88197411163    6.32080279923   -0.00205593177   -2.00000000000
     16.88197411163   -6.32080279923   -0.00205593177   -2.00000000000
      6.32080279923  -16.88197411163   -0.00205593177   -2.00000000000
     -6.32080279923  -16.88197411163   -0.00205593177   -2.00000000000
    -16.88197411163   -6.32080279923   -0.00205593177   -2.00000000000
    -12.66148058373   12.66148058373   -2.15801787533   -2.00000000000
     12.66148058373   12.66148058373   -2.15801787533   -2.00000000000
     12.66148058373  -12.66148058373   -2.15801787533   -2.00000000000
    -12.66148058373  -12.66148058373   -2.15801787533   -2.00000000000
    -16.88197411163    0.00000000000   -6.38587007189   -2.00000000000
      0.00000000000   16.88197411163   -6.38587007189   -2.00000000000
     16.88197411163    0.00000000000   -6.38587007189   -2.00000000000
      0.00000000000  -16.88197411163   -6.38587007189   -2.00000000000
    -14.77053148910   10.55242967836   -0.05140086690    2.00000000000
    -10.55242967836   14.77053148910   -0.05140086690    2.00000000000
     10.55242967836   14.77053148910   -0.05140086690    2.00000000000
     14.77053148910   10.55242967836   -0.05140086690    2.00000000000
     14.77053148910  -10.55242967836   -0.05140086690    2.00000000000
     10.55242967836  -14.77053148910   -0.05140086690    2.00000000000
    -10.55242967836  -14.77053148910   -0.05140086690    2.00000000000
    -14.77053148910  -10.55242967836   -0.05140086690    2.00000000000
    -16.88197411163    6.33393418427   -2.14928009216    2.00000000000
     -6.33393418427   16.88197411163   -2.14928009216    2.00000000000
      6.33393418427   16.88197411163   -2.14928009216    2.00000000000
     16.88197411163    6.33393418427   -2.14928009216    2.00000000000
     16.88197411163   -6.33393418427   -2.14928009216    2.00000000000
      6.33393418427  -16.88197411163   -2.14928009216    2.00000000000
     -6.33393418427  -16.88197411163   -2.14928009216    2.00000000000
    -16.88197411163   -6.33393418427   -2.14928009216    2.00000000000
    -16.88197411163    2.11024676395   -6.38587007189    2.00000000000
    -14.77172734768    8.44098705582   -6.38587007189    2.00000000000
     -8.44098705582   14.77172734768   -6.38587007189    2.00000000000
     -2.11024676395   16.88197411163   -6.38587007189    2.00000000000
      2.11024676395   16.88197411163   -6.38587007189    2.00000000000
      8.44098705582   14.77172734768   -6.38587007189    2.00000000000
     14.77172734768    8.44098705582   -6.38587007189    2.00000000000
     16.88197411163    2.11024676395   -6.38587007189    2.00000000000
     16.88197411163   -2.11024676395   -6.38587007189    2.00000000000
     14.77172734768   -8.44098705582   -6.38587007189    2.00000000000
      8.44098705582  -14.77172734768   -6.38587007189    2.00000000000
      2.11024676395  -16.88197411163   -6.38587007189    2.00000000000
     -2.11024676395  -16.88197411163   -6.38587007189    2.00000000000
     -8.44098705582  -14.77172734768   -6.38587007189    2.00000000000
    -14.77172734768   -8.44098705582   -6.38587007189    2.00000000000
    -16.88197411163   -2.11024676395   -6.38587007189    2.00000000000
    -14.77126959714   10.55169157031   -2.15696791928   -2.00000000000
    -10.55169157031   14.77126959714   -2.15696791928   -2.00000000000
     10.55169157031   14.77126959714   -2.15696791928   -2.00000000000
     14.77126959714   10.55169157031   -2.15696791928   -2.00000000000
     14.77126959714  -10.55169157031   -2.15696791928   -2.00000000000
     10.55169157031  -14.77126959714   -2.15696791928   -2.00000000000
    -10.55169157031  -14.77126959714   -2.15696791928   -2.00000000000
    -14.77126959714  -10.55169157031   -2.15696791928   -2.00000000000
    -12.66148058373   12.66148058373   -4.27562330794    2.00000000000
     12.66148058373   12.66148058373   -4.27562330794    2.00000000000
     12.66148058373  -12.66148058373   -4.27562330794    2.00000000000
    -12.66148058373  -12.66148058373   -4.27562330794    2.00000000000
    -16.88197411163    6.33074029186   -4.27562330794   -2.00000000000
     -6.33074029186   16.88197411163   -4.27562330794   -2.00000000000
      6.33074029186   16.88197411163   -4.27562330794   -2.00000000000
     16.88197411163    6.33074029186   -4.27562330794   -2.00000000000
     16.88197411163   -6.33074029186   -4.27562330794   -2.00000000000
      6.33074029186  -16.88197411163   -4.27562330794   -2.00000000000
     -6.33074029186  -16.88197411163   -4.27562330794   -2.00000000000
    -16.88197411163   -6.33074029186   -4.27562330794   -2.00000000000
    -16.88197411163    4.22049352791   -6.38587007189   -2.00000000000
     -4.22049352791   16.88197411163   -6.38587007189   -2.00000000000
      4.22049352791   16.88197411163   -6.38587007189   -2.00000000000
     16.88197411163    4.22049352791   -6.38587007189   -2.00000000000
     16.88197411163   -4.22049352791   -6.38587007189   -2.00000000000
      4.22049352791  -16.88197411163   -6.38587007189   -2.00000000000
     -4.22049352791  -16.88197411163   -6.38587007189   -2.00000000000
    -16.88197411163   -4.22049352791   -6.38587007189   -2.00000000000
    -14.77172734768   10.55123381977   -4.27562330794    2.00000000000
    -10.55123381977   14.77172734768   -4.27562330794    2.00000000000
     10.55123381977   14.77172734768   -4.27562330794    2.00000000000
     14.77172734768   10.55123381977   -4.27562330794    2.00000000000
     14.77172734768  -10.55123381977   -4.27562330794    2.00000000000
     10.55123381977  -14.77172734768   -4.27562330794    2.00000000000
    -10.55123381977  -14.77172734768   -4.27562330794    2.00000000000
    -14.77172734768  -10.55123381977   -4.27562330794    2.00000000000
    -16.88197411163    8.44098705582   -0.00772802266    2.00000000000
     -8.44098705582   16.88197411163   -0.00772802266    2.00000000000
      8.44098705582   16.88197411163   -0.00772802266    2.00000000000
     16.88197411163    8.44098705582   -0.00772802266    2.00000000000
     16.88197411163   -8.44098705582   -0.00772802266    2.00000000000
      8.44098705582  -16.88197411163   -0.00772802266    2.00000000000
     -8.44098705582  -16.88197411163   -0.00772802266    2.00000000000
    -16.88197411163   -8.44098705582   -0.00772802266    2.00000000000
    -16.88197411163    8.44098705582   -2.14902768389   -2.00000000000
     -8.44098705582   16.88197411163   -2.14902768389   -2.00000000000
      8.44098705582   16.88197411163   -2.14902768389   -2.00000000000
     16.88197411163    8.44098705582   -2.14902768389   -2.00000000000
     16.88197411163   -8.44098705582   -2.14902768389   -2.00000000000
      8.44098705582  -16.88197411163   -2.14902768389   -2.00000000000
     -8.44098705582  -16.88197411163   -2.14902768389   -2.00000000000
    -16.88197411163   -8.44098705582   -2.14902768389   -2.00000000000
    -19.00215836822    0.00000000000   -0.00205593177   -2.00000000000
      0.00000000000   19.00215836822   -0.00205593177   -2.00000000000
     19.00215836822    0.00000000000   -0.00205593177   -2.00000000000
      0.00000000000  -19.00215836822   -0.00205593177   -2.00000000000
    -12.66148058373   12.66148058373   -6.38587007189   -2.00000000000
     12.66148058373   12.66148058373   -6.38587007189   -2.00000000000
     12.66148058373  -12.66148058373   -6.38587007189   -2.00000000000
    -12.66148058373  -12.66148058373   -6.38587007189   -2.00000000000
    -18.98902698318    0.00000000000   -2.14928009216    2.00000000000
      0.00000000000   18.98902698318   -2.14928009216    2.00000000000
     18.98902698318    0.00000000000   -2.14928009216    2.00000000000
      0.00000000000  -18.98902698318   -2.14928009216    2.00000000000
    -18.99341673417    2.11144262254   -0.05140086690    2.00000000000
     -2.11144262254   18.99341673417   -0.05140086690    2.00000000000
      2.11144262254   18.99341673417   -0.05140086690    2.00000000000
     18.99341673417    2.11144262254   -0.05140086690    2.00000000000
     18.99341673417   -2.11144262254   -0.05140086690    2.00000000000
      2.11144262254  -18.99341673417   -0.05140086690    2.00000000000
     -2.11144262254  -18.99341673417   -0.05140086690    2.00000000000
    -18.99341673417   -2.11144262254   -0.05140086690    2.00000000000
    -16.88197411163    6.33074029186   -6.38587007189    2.00000000000
     -6.33074029186   16.88197411163   -6.38587007189    2.00000000000
      6.33074029186   16.88197411163   -6.38587007189    2.00000000000
     16.88197411163    6.33074029186   -6.38587007189    2.00000000000
     16.88197411163   -6.33074029186   -6.38587007189    2.00000000000
      6.33074029186  -16.88197411163   -6.38587007189    2.00000000000
     -6.33074029186  -16.88197411163   -6.38587007189    2.00000000000
    -16.88197411163   -6.33074029186   -6.38587007189    2.00000000000
    -18.99267862613    2.11070451449   -2.15696791928   -2.00000000000
     -2.11070451449   18.99267862613   -2.15696791928   -2.00000000000
      2.11070451449   18.99267862613   -2.15696791928   -2.00000000000
     18.99267862613    2.11070451449   -2.15696791928   -2.00000000000
     18.99267862613   -2.11070451449   -2.15696791928   -2.00000000000
      2.11070451449  -18.99267862613   -2.15696791928   -2.00000000000
     -2.11070451449  -18.99267862613   -2.15696791928   -2.00000000000
    -18.99267862613   -2.11070451449   -2.15696791928   -2.00000000000
    -14.77172734768   10.55123381977   -6.38587007189   -2.00000000000
    -10.55123381977   14.77172734768   -6.38587007189   -2.00000000000
     10.55123381977   14.77172734768   -6.38587007189   -2.00000000000
     14.77172734768   10.55123381977   -6.38587007189   -2.00000000000
     14.77172734768  -10.55123381977   -6.38587007189   -2.00000000000
     10.55123381977  -14.77172734768   -6.38587007189   -2.00000000000
    -10.55123381977  -14.77172734768   -6.38587007189   -2.00000000000
    -14.77172734768  -10.55123381977   -6.38587007189   -2.00000000000
    -16.88197411163    8.44098705582   -4.27562330794    2.00000000000
     -8.44098705582   16.88197411163   -4.27562330794    2.00000000000
      8.44098705582   16.88197411163   -4.27562330794    2.00000000000
     16.88197411163    8.44098705582   -4.27562330794    2.00000000000
     16.88197411163   -8.44098705582   -4.27562330794    2.00000000000
      8.44098705582  -16.88197411163   -4.27562330794    2.00000000000
     -8.44098705582  -16.88197411163   -4.27562330794    2.00000000000
    -16.88197411163   -8.44098705582   -4.27562330794    2.00000000000
    -14.76988271440   12.66148058373    0.00000000000   -2.00000000000
    -12.66148058373   14.76988271440    0.00000000000   -2.00000000000
     12.66148058373   14.76988271440    0.00000000000   -2.00000000000
     14.76988271440   12.66148058373    0.00000000000   -2.00000000000
     14.76988271440  -12.66148058373    0.00000000000   -2.00000000000
     12.66148058373  -14.76988271440    0.00000000000   -2.00000000000
    -12.66148058373  -14.76988271440    0.00000000000   -2.00000000000
    -14.76988271440  -12.66148058373    0.00000000000   -2.00000000000
    -18.99406550886    4.22049352791    0.00000000000   -2.00000000000
     -4.22049352791   18.99406550886    0.00000000000   -2.00000000000
      4.22049352791   18.99406550886    0.00000000000   -2.00000000000
     18.99406550886    4.22049352791    0.00000000000   -2.00000000000
     18.99406550886   -4.22049352791    0.00000000000   -2.00000000000
      4.22049352791  -18.99406550886    0.00000000000   -2.00000000000
     -4.22049352791  -18.99406550886    0.00000000000   -2.00000000000
    -18.99406550886   -4.22049352791    0.00000000000   -2.00000000000
    -18.99222087559    0.00000000000   -4.27562330794   -2.00000000000
      0.00000000000   18.99222087559   -4.27562330794   -2.00000000000
     18.99222087559    0.00000000000   -4.27562330794   -2.00000000000
      0.00000000000  -18.99222087559   -4.27562330794   -2.00000000000
    -18.99170823680    4.22049352791   -2.15218714568    2.00000000000
     -4.22049352791   18.99170823680   -2.15218714568    2.00000000000
      4.22049352791   18.99170823680   -2.15218714568    2.00000000000
     18.99170823680    4.22049352791   -2.15218714568    2.00000000000
     18.99170823680   -4.22049352791   -2.15218714568    2.00000000000
      4.22049352791  -18.99170823680   -2.15218714568    2.00000000000
     -4.22049352791  -18.99170823680   -2.15218714568    2.00000000000
    -18.99170823680   -4.22049352791   -2.15218714568    2.00000000000
    -14.77223998647   12.66148058373   -2.15218714568    2.00000000000
    -12.66148058373   14.77223998647   -2.15218714568    2.00000000000
     12.66148058373   14.77223998647   -2.15218714568    2.00000000000
     14.77223998647   12.66148058373   -2.15218714568    2.00000000000
     14.77223998647  -12.66148058373   -2.15218714568    2.00000000000
     12.66148058373  -14.77223998647   -2.15218714568    2.00000000000
    -12.66148058373  -14.77223998647   -2.15218714568    2.00000000000
    -14.77223998647  -12.66148058373   -2.15218714568    2.00000000000
    -18.99222087559    2.11024676395   -4.27562330794    2.00000000000
     -2.11024676395   18.99222087559   -4.27562330794    2.00000000000
      2.11024676395   18.99222087559   -4.27562330794    2.00000000000
     18.99222087559    2.11024676395   -4.27562330794    2.00000000000
     18.99222087559   -2.11024676395   -4.27562330794    2.00000000000
      2.11024676395  -18.99222087559   -4.27562330794    2.00000000000
     -2.11024676395  -18.99222087559   -4.27562330794    2.00000000000
    -18.99222087559   -2.11024676395   -4.27562330794    2.00000000000
    -16.88197411163   10.56117131241   -0.00205593177   -2.00000000000
    -10.56117131241   16.88197411163   -0.00205593177   -2.00000000000
     10.56117131241   16.88197411163   -0.00205593177   -2.00000000000
     16.88197411163   10.56117131241   -0.00205593177   -2.00000000000
     16.88197411163  -10.56117131241   -0.00205593177   -2.00000000000
     10.56117131241  -16.88197411163   -0.00205593177   -2.00000000000
    -10.56117131241  -16.88197411163   -0.00205593177   -2.00000000000
    -16.88197411163  -10.56117131241   -0.00205593177   -2.00000000000
    -18.99222087559    4.22049352791   -4.27562330794   -2.00000000000
    -14.77172734768   12.66148058373   -4.27562330794   -2.00000000000
    -12.66148058373   14.77172734768   -4.27562330794   -2.00000000000
     -4.22049352791   18.99222087559   -4.27562330794   -2.00000000000
[...]
   54    7O3d-1        7O3d0         7O3d+1        7O3d+2        7O4d-2        7O4d-1        7O4d0         7O4d+1        7O4d+2        7O1f-3    
   55    7O1f-2        7O1f-1        7O1f0         7O1f+1        7O1f+2        7O1f+3        7O2f-3        7O2f-2        7O2f-1        7O2f0     
   56    7O2f+1        7O2f+2        7O2f+3        7O1g-4        7O1g-3        7O1g-2        7O1g-1        7O1g0         7O1g+1        7O1g+2    
   57    7O1g+3        7O1g+4        8O1s          8O2s          8O3s          8O4s          8O5s          8O6s          8O7s          8O8s      
   58    8O9s          8O10s         8O1pz         8O1py         8O1px         8O2pz         8O2py         8O2px         8O3pz         8O3py     
   59    8O3px         8O4pz         8O4py         8O4px         8O5pz         8O5py         8O5px         8O6pz         8O6py         8O6px     
   60    8O7pz         8O7py         8O7px         8O8pz         8O8py         8O8px         8O1d-2        8O1d-1        8O1d0         8O1d+1    
   61    8O1d+2        8O2d-2        8O2d-1        8O2d0         8O2d+1        8O2d+2        8O3d-2        8O3d-1        8O3d0         8O3d+1    
   62    8O3d+2        8O4d-2        8O4d-1        8O4d0         8O4d+1        8O4d+2        8O1f-3        8O1f-2        8O1f-1        8O1f0     
   63    8O1f+1        8O1f+2        8O1f+3        8O2f-3        8O2f-2        8O2f-1        8O2f0         8O2f+1        8O2f+2        8O2f+3    
   64    8O1g-4        8O1g-3        8O1g-2        8O1g-1        8O1g0         8O1g+1        8O1g+2        8O1g+3        8O1g+4    
 
 Maximum number of basis functions per shell:   35
 Total number of basis functions:    649
 
 
 Fitting basis set for the correlation calculation:
 
   1  C  aug-cc-pvdz-ri [ 8s 6p 5d 3f | 8s 6p 5d 3f ]
   2  O  aug-cc-pvdz-ri [ 8s 6p 5d 3f | 8s 6p 5d 3f ]
   3  Mg bse_cvdz_mp2fit [ 12s 10p 8d 5f | 12s 10p 8d 5f ]
   4  O  aug-cc-pvdz-ri [ 8s 6p 5d 3f | 8s 6p 5d 3f ]
   5  O  aug-cc-pvdz-ri [ 8s 6p 5d 3f | 8s 6p 5d 3f ]
   6  O  aug-cc-pvdz-ri [ 8s 6p 5d 3f | 8s 6p 5d 3f ]
   7  O  aug-cc-pvdz-ri [ 8s 6p 5d 3f | 8s 6p 5d 3f ]
   8  O  aug-cc-pvdz-ri [ 8s 6p 5d 3f | 8s 6p 5d 3f ]
   9  Mg nothing [ | ]
  10  Mg nothing [ | ]
  11  Mg nothing [ | ]
  12  Mg nothing [ | ]
  13  Mg nothing [ | ]
  14  Mg nothing [ | ]
  15  Mg nothing [ | ]
  16  Mg nothing [ | ]
  17  Mg nothing [ | ]
  18  Mg nothing [ | ]
  19  Mg nothing [ | ]
  20  Mg nothing [ | ]
  21  Mg nothing [ | ]
  22  Mg nothing [ | ]
  23  Mg nothing [ | ]
  24  Mg nothing [ | ]
  25  Mg nothing [ | ]
  26  Mg nothing [ | ]
  27  Mg nothing [ | ]
  28  Mg nothing [ | ]
  29  Mg nothing [ | ]
  30  Mg nothing [ | ]
  31  Mg nothing [ | ]
  32  Mg nothing [ | ]
  33  Mg nothing [ | ]
 
 Basis functions:
            1             2             3             4             5             6             7             8             9            10
    0    1C1s          1C2s          1C3s          1C4s          1C5s          1C6s          1C7s          1C8s          1C1pz         1C1py     
    1    1C1px         1C2pz         1C2py         1C2px         1C3pz         1C3py         1C3px         1C4pz         1C4py         1C4px     
    2    1C5pz         1C5py         1C5px         1C6pz         1C6py         1C6px         1C1d-2        1C1d-1        1C1d0         1C1d+1    
    3    1C1d+2        1C2d-2        1C2d-1        1C2d0         1C2d+1        1C2d+2        1C3d-2        1C3d-1        1C3d0         1C3d+1    
    4    1C3d+2        1C4d-2        1C4d-1        1C4d0         1C4d+1        1C4d+2        1C5d-2        1C5d-1        1C5d0         1C5d+1    
    5    1C5d+2        1C1f-3        1C1f-2        1C1f-1        1C1f0         1C1f+1        1C1f+2        1C1f+3        1C2f-3        1C2f-2    
    6    1C2f-1        1C2f0         1C2f+1        1C2f+2        1C2f+3        1C3f-3        1C3f-2        1C3f-1        1C3f0         1C3f+1    
    7    1C3f+2        1C3f+3        2O1s          2O2s          2O3s          2O4s          2O5s          2O6s          2O7s          2O8s      
    8    2O1pz         2O1py         2O1px         2O2pz         2O2py         2O2px         2O3pz         2O3py         2O3px         2O4pz     
    9    2O4py         2O4px         2O5pz         2O5py         2O5px         2O6pz         2O6py         2O6px         2O1d-2        2O1d-1    
   10    2O1d0         2O1d+1        2O1d+2        2O2d-2        2O2d-1        2O2d0         2O2d+1        2O2d+2        2O3d-2        2O3d-1    
   11    2O3d0         2O3d+1        2O3d+2        2O4d-2        2O4d-1        2O4d0         2O4d+1        2O4d+2        2O5d-2        2O5d-1    
   12    2O5d0         2O5d+1        2O5d+2        2O1f-3        2O1f-2        2O1f-1        2O1f0         2O1f+1        2O1f+2        2O1f+3    
   13    2O2f-3        2O2f-2        2O2f-1        2O2f0         2O2f+1        2O2f+2        2O2f+3        2O3f-3        2O3f-2        2O3f-1    
   14    2O3f0         2O3f+1        2O3f+2        2O3f+3        3Mg1s         3Mg2s         3Mg3s         3Mg4s         3Mg5s         3Mg6s     
   15    3Mg7s         3Mg8s         3Mg9s         3Mg10s        3Mg11s        3Mg12s        3Mg1pz        3Mg1py        3Mg1px        3Mg2pz    
   16    3Mg2py        3Mg2px        3Mg3pz        3Mg3py        3Mg3px        3Mg4pz        3Mg4py        3Mg4px        3Mg5pz        3Mg5py    
   17    3Mg5px        3Mg6pz        3Mg6py        3Mg6px        3Mg7pz        3Mg7py        3Mg7px        3Mg8pz        3Mg8py        3Mg8px    
   18    3Mg9pz        3Mg9py        3Mg9px        3Mg10pz       3Mg10py       3Mg10px       3Mg1d-2       3Mg1d-1       3Mg1d0        3Mg1d+1   
   19    3Mg1d+2       3Mg2d-2       3Mg2d-1       3Mg2d0        3Mg2d+1       3Mg2d+2       3Mg3d-2       3Mg3d-1       3Mg3d0        3Mg3d+1   
   20    3Mg3d+2       3Mg4d-2       3Mg4d-1       3Mg4d0        3Mg4d+1       3Mg4d+2       3Mg5d-2       3Mg5d-1       3Mg5d0        3Mg5d+1   
   21    3Mg5d+2       3Mg6d-2       3Mg6d-1       3Mg6d0        3Mg6d+1       3Mg6d+2       3Mg7d-2       3Mg7d-1       3Mg7d0        3Mg7d+1   
   22    3Mg7d+2       3Mg8d-2       3Mg8d-1       3Mg8d0        3Mg8d+1       3Mg8d+2       3Mg1f-3       3Mg1f-2       3Mg1f-1       3Mg1f0    
   23    3Mg1f+1       3Mg1f+2       3Mg1f+3       3Mg2f-3       3Mg2f-2       3Mg2f-1       3Mg2f0        3Mg2f+1       3Mg2f+2       3Mg2f+3   
   24    3Mg3f-3       3Mg3f-2       3Mg3f-1       3Mg3f0        3Mg3f+1       3Mg3f+2       3Mg3f+3       3Mg4f-3       3Mg4f-2       3Mg4f-1   
   25    3Mg4f0        3Mg4f+1       3Mg4f+2       3Mg4f+3       3Mg5f-3       3Mg5f-2       3Mg5f-1       3Mg5f0        3Mg5f+1       3Mg5f+2   
   26    3Mg5f+3       4O1s          4O2s          4O3s          4O4s          4O5s          4O6s          4O7s          4O8s          4O1pz     
   27    4O1py         4O1px         4O2pz         4O2py         4O2px         4O3pz         4O3py         4O3px         4O4pz         4O4py     
   28    4O4px         4O5pz         4O5py         4O5px         4O6pz         4O6py         4O6px         4O1d-2        4O1d-1        4O1d0     
   29    4O1d+1        4O1d+2        4O2d-2        4O2d-1        4O2d0         4O2d+1        4O2d+2        4O3d-2        4O3d-1        4O3d0     
   30    4O3d+1        4O3d+2        4O4d-2        4O4d-1        4O4d0         4O4d+1        4O4d+2        4O5d-2        4O5d-1        4O5d0     
   31    4O5d+1        4O5d+2        4O1f-3        4O1f-2        4O1f-1        4O1f0         4O1f+1        4O1f+2        4O1f+3        4O2f-3    
   32    4O2f-2        4O2f-1        4O2f0         4O2f+1        4O2f+2        4O2f+3        4O3f-3        4O3f-2        4O3f-1        4O3f0     
   33    4O3f+1        4O3f+2        4O3f+3        5O1s          5O2s          5O3s          5O4s          5O5s          5O6s          5O7s      
   34    5O8s          5O1pz         5O1py         5O1px         5O2pz         5O2py         5O2px         5O3pz         5O3py         5O3px     
   35    5O4pz         5O4py         5O4px         5O5pz         5O5py         5O5px         5O6pz         5O6py         5O6px         5O1d-2    
   36    5O1d-1        5O1d0         5O1d+1        5O1d+2        5O2d-2        5O2d-1        5O2d0         5O2d+1        5O2d+2        5O3d-2    
   37    5O3d-1        5O3d0         5O3d+1        5O3d+2        5O4d-2        5O4d-1        5O4d0         5O4d+1        5O4d+2        5O5d-2    
   38    5O5d-1        5O5d0         5O5d+1        5O5d+2        5O1f-3        5O1f-2        5O1f-1        5O1f0         5O1f+1        5O1f+2    
   39    5O1f+3        5O2f-3        5O2f-2        5O2f-1        5O2f0         5O2f+1        5O2f+2        5O2f+3        5O3f-3        5O3f-2    
   40    5O3f-1        5O3f0         5O3f+1        5O3f+2        5O3f+3        6O1s          6O2s          6O3s          6O4s          6O5s      
   41    6O6s          6O7s          6O8s          6O1pz         6O1py         6O1px         6O2pz         6O2py         6O2px         6O3pz     
   42    6O3py         6O3px         6O4pz         6O4py         6O4px         6O5pz         6O5py         6O5px         6O6pz         6O6py     
   43    6O6px         6O1d-2        6O1d-1        6O1d0         6O1d+1        6O1d+2        6O2d-2        6O2d-1        6O2d0         6O2d+1    
   44    6O2d+2        6O3d-2        6O3d-1        6O3d0         6O3d+1        6O3d+2        6O4d-2        6O4d-1        6O4d0         6O4d+1    
   45    6O4d+2        6O5d-2        6O5d-1        6O5d0         6O5d+1        6O5d+2        6O1f-3        6O1f-2        6O1f-1        6O1f0     
   46    6O1f+1        6O1f+2        6O1f+3        6O2f-3        6O2f-2        6O2f-1        6O2f0         6O2f+1        6O2f+2        6O2f+3    
   47    6O3f-3        6O3f-2        6O3f-1        6O3f0         6O3f+1        6O3f+2        6O3f+3        7O1s          7O2s          7O3s      
   48    7O4s          7O5s          7O6s          7O7s          7O8s          7O1pz         7O1py         7O1px         7O2pz         7O2py     
   49    7O2px         7O3pz         7O3py         7O3px         7O4pz         7O4py         7O4px         7O5pz         7O5py         7O5px     
   50    7O6pz         7O6py         7O6px         7O1d-2        7O1d-1        7O1d0         7O1d+1        7O1d+2        7O2d-2        7O2d-1    
   51    7O2d0         7O2d+1        7O2d+2        7O3d-2        7O3d-1        7O3d0         7O3d+1        7O3d+2        7O4d-2        7O4d-1    
   52    7O4d0         7O4d+1        7O4d+2        7O5d-2        7O5d-1        7O5d0         7O5d+1        7O5d+2        7O1f-3        7O1f-2    
   53    7O1f-1        7O1f0         7O1f+1        7O1f+2        7O1f+3        7O2f-3        7O2f-2        7O2f-1        7O2f0         7O2f+1    
   54    7O2f+2        7O2f+3        7O3f-3        7O3f-2        7O3f-1        7O3f0         7O3f+1        7O3f+2        7O3f+3        8O1s      
   55    8O2s          8O3s          8O4s          8O5s          8O6s          8O7s          8O8s          8O1pz         8O1py         8O1px     
   56    8O2pz         8O2py         8O2px         8O3pz         8O3py         8O3px         8O4pz         8O4py         8O4px         8O5pz     
   57    8O5py         8O5px         8O6pz         8O6py         8O6px         8O1d-2        8O1d-1        8O1d0         8O1d+1        8O1d+2    
   58    8O2d-2        8O2d-1        8O2d0         8O2d+1        8O2d+2        8O3d-2        8O3d-1        8O3d0         8O3d+1        8O3d+2    
   59    8O4d-2        8O4d-1        8O4d0         8O4d+1        8O4d+2        8O5d-2        8O5d-1        8O5d0         8O5d+1        8O5d+2    
   60    8O1f-3        8O1f-2        8O1f-1        8O1f0         8O1f+1        8O1f+2        8O1f+3        8O2f-3        8O2f-2        8O2f-1    
   61    8O2f0         8O2f+1        8O2f+2        8O2f+3        8O3f-3        8O3f-2        8O3f-1        8O3f0         8O3f+1        8O3f+2    
   62    8O3f+3    
 
 Maximum number of basis functions per shell:   40
 Total number of basis functions:    621
 
 
 Old basis set for SCF restart
 
   1  C  def2-svp [ 7s 4p 1d | 3s 2p 1d ]
   2  O  def2-svp [ 7s 4p 1d | 3s 2p 1d ]
   3  Mg def2-svp [ 10s 7p 1d | 4s 3p 1d ]
   4  O  def2-svp [ 7s 4p 1d | 3s 2p 1d ]
   5  O  def2-svp [ 7s 4p 1d | 3s 2p 1d ]
   6  O  def2-svp [ 7s 4p 1d | 3s 2p 1d ]
   7  O  def2-svp [ 7s 4p 1d | 3s 2p 1d ]
   8  O  def2-svp [ 7s 4p 1d | 3s 2p 1d ]
   9  Mg nothing [ | ]
  10  Mg nothing [ | ]
  11  Mg nothing [ | ]
  12  Mg nothing [ | ]
  13  Mg nothing [ | ]
  14  Mg nothing [ | ]
  15  Mg nothing [ | ]
  16  Mg nothing [ | ]
  17  Mg nothing [ | ]
  18  Mg nothing [ | ]
  19  Mg nothing [ | ]
  20  Mg nothing [ | ]
  21  Mg nothing [ | ]
  22  Mg nothing [ | ]
  23  Mg nothing [ | ]
  24  Mg nothing [ | ]
  25  Mg nothing [ | ]
  26  Mg nothing [ | ]
  27  Mg nothing [ | ]
  28  Mg nothing [ | ]
  29  Mg nothing [ | ]
  30  Mg nothing [ | ]
  31  Mg nothing [ | ]
  32  Mg nothing [ | ]
  33  Mg nothing [ | ]
 
 Basis functions:
            1             2             3             4             5             6             7             8             9            10
    0    1C1s          1C2s          1C3s          1C1pz         1C1py         1C1px         1C2pz         1C2py         1C2px         1C1d-2    
    1    1C1d-1        1C1d0         1C1d+1        1C1d+2        2O1s          2O2s          2O3s          2O1pz         2O1py         2O1px     
    2    2O2pz         2O2py         2O2px         2O1d-2        2O1d-1        2O1d0         2O1d+1        2O1d+2        3Mg1s         3Mg2s     
    3    3Mg3s         3Mg4s         3Mg1pz        3Mg1py        3Mg1px        3Mg2pz        3Mg2py        3Mg2px        3Mg3pz        3Mg3py    
    4    3Mg3px        3Mg1d-2       3Mg1d-1       3Mg1d0        3Mg1d+1       3Mg1d+2       4O1s          4O2s          4O3s          4O1pz     
    5    4O1py         4O1px         4O2pz         4O2py         4O2px         4O1d-2        4O1d-1        4O1d0         4O1d+1        4O1d+2    
    6    5O1s          5O2s          5O3s          5O1pz         5O1py         5O1px         5O2pz         5O2py         5O2px         5O1d-2    
    7    5O1d-1        5O1d0         5O1d+1        5O1d+2        6O1s          6O2s          6O3s          6O1pz         6O1py         6O1px     
    8    6O2pz         6O2py         6O2px         6O1d-2        6O1d-1        6O1d0         6O1d+1        6O1d+2        7O1s          7O2s      
    9    7O3s          7O1pz         7O1py         7O1px         7O2pz         7O2py         7O2px         7O1d-2        7O1d-1        7O1d0     
   10    7O1d+1        7O1d+2        8O1s          8O2s          8O3s          8O1pz         8O1py         8O1px         8O2pz         8O2py     
   11    8O2px         8O1d-2        8O1d-1        8O1d0         8O1d+1        8O1d+2    
 
 Maximum number of basis functions per shell:   40
 Total number of basis functions:    116
 
 
 Effective core potentials:
 
   9  Mg ecp-12              
  10  Mg ecp-12              
  11  Mg ecp-12              
  12  Mg ecp-12              
  13  Mg ecp-12              
  14  Mg ecp-12              
  15  Mg ecp-12              
  16  Mg ecp-12              
  17  Mg ecp-12              
  18  Mg ecp-12              
  19  Mg ecp-12              
  20  Mg ecp-12              
  21  Mg ecp-12              
  22  Mg ecp-12              
  23  Mg ecp-12              
  24  Mg ecp-12              
  25  Mg ecp-12              
  26  Mg ecp-12              
  27  Mg ecp-12              
  28  Mg ecp-12              
  29  Mg ecp-12              
  30  Mg ecp-12              
  31  Mg ecp-12              
  32  Mg ecp-12              
  33  Mg ecp-12              
 
 Calculation of prescreening integrals...
 CPU time [min]:     0.139                   Wall time [min]:     0.014
 
 Calculation of two-center Coulomb integrals...
   1% done.
  13% done.
  25% done.
  38% done.
  54% done.
  66% done.
  78% done.
  93% done.
 100% done.
 CPU time [min]:     0.148                   Wall time [min]:     0.015
 
 Calculation of inverse square root of the two-center integral matrix...
 CPU time [min]:     0.242                   Wall time [min]:     0.017
 
 Calculation of three-center Coulomb integrals...
   1% done.
  15% done.
  26% done.
  40% done.
  57% done.
  68% done.
  81% done.
 100% done.
 CPU time [min]:     0.411                   Wall time [min]:     0.022

 ************************ 2022-10-15 12:48:00 *************************
 Executing drpa...

 Three-index integral transformation
 
 Allocation of 150.0 Gbytes of memory...
 Minimal memory requirement for (ai|P) and (ij|P) integrals:        3.5 MB

 Calculating (ai|P) and (ij|P) integrals...
 Number of integral batches:    1
 Occupied indices per batch:   24
 
 Transforming integrals of batch 1...
 CPU time [min]:     0.249                   Wall time [min]:     0.010

 Calculating (ab|P) integrals...
 Minimal memory requirement for (ab|P) integrals:        2.6 MB
 Number of integral batches:    1
 Virtual indices per batch:   158

 Transforming integrals of batch 1...
 CPU time [min]:     0.381                   Wall time [min]:     0.018

 ************************ 2022-10-15 12:48:01 *************************
 Executing ccsd...

 Allocation of 150.0 Gbytes of memory...

 Direct DF-CCSD(T) calculation
 
 Convergence criterion:  1.0E-06
 
 Number of occupied/virtual/auxiliary orbitals:    24   158   621
    801.65 MB is the minimal memory requirement for (T)
    370.64 MB is the minimal memory requirement for CCSD
 
 Reference energy [au]:           -9893.274860372234
 T1 contribution [au]:                0.000000000000
 Same spin MP2 energy [au]:          -0.341714729303
 Opposite spin MP2 energy [au]:      -0.892619756313
 MP2 correlation energy [au]:        -1.234334485616
 Total MP2 energy [au]:           -9894.509194857850
 
 
 CPU time [min]:     0.420                   Wall time [min]:     0.032
 
 Starting CCSD iterations...
 
                     Residual norm          Energy
 Iteration  1        0.243215560720    -9894.489415533229
 Iteration  2        0.072871314767    -9894.512322890761
 Iteration  3        0.028419066186    -9894.519474228149
 Iteration  4        0.006461975460    -9894.519154161660
 Iteration  5        0.002400817108    -9894.518948987086
 Iteration  6        0.000769292919    -9894.519007760116
 Iteration  7        0.000364791328    -9894.519017110642
 Iteration  8        0.000135837643    -9894.519007258144
 Iteration  9        0.000041968129    -9894.519003939327
 Iteration 10        0.000016257302    -9894.519003645162
 Iteration 11        0.000005364130    -9894.519003746975
 
 CCSD iteration has converged in 11 steps.
     2721.93 MB memory was utilized by CCSD
 
 T1 diagnostic:      1.260E-02            D1 diagnostic:      4.189E-02
 
 T1 contribution [au]:                                  0.000000000000
 Opposite spin CCSD energy [au]:                       -0.946967191666
 Same spin CCSD energy [au]:                           -0.297176183074
 CCSD correlation energy [au]:                         -1.244143374741
 Total CCSD energy [au]:                            -9894.519003746975
 
 CPU time [min]:    16.516                   Wall time [min]:     0.561
 
 Calculation of (T) correction...
 
 
     1448.86 MB memory is utilized for (T)

 0%       25%       50%       75%       100%
 |---------|---------|---------|---------| 
 
 (T) correction [au]:                                    -0.030368855219
 CCSD(T) correlation energy [au]:                        -1.274512229960
 Total CCSD(T) energy [au]:                           -9894.549372602194
 
 CPU time [min]:    42.497                   Wall time [min]:     1.236
 
 ************************ 2022-10-15 12:49:17 *************************
                      Normal termination of mrcc.
 **********************************************************************
