 vasp.6.3.0 20Jan22 (build Apr  1 2022 16:44:48) complex                         
 executed on        HPECrayEX_GCC date 2023.05.17  21:49:20
 running  512 mpi-ranks, with    1 threads/rank
 distrk:  each k-point on  256 cores,    2 groups
 distr:  one band on NCORE=   4 cores,   64 groups


--------------------------------------------------------------------------------------------------------


 INCAR:
   SYSTEM = MgO-rocksalt
   ISMEAR = 0
   SIGMA = 0.05
   EDIFF = 1E-6
   ALGO = ALL
   ISTART = 0
   IBRION = -1
   NSW = 0
   ISYM = 2
   ISIF = 2
   EDIFFG = -0.01
   DIPOL = 0.5 0.5 0.5
   IDIPOL = 3
   LDIPOL = .TRUE.
   GGA = MK
   LUSE_VDW = .TRUE.
   PARAM1 = 0.1234
   PARAM2 = 0.711357
   ZAB_VDW = -1.8867
   AGGAC = 0.0
   ENCUT = 600
   PREC = Normal
   LASPH = .TRUE.
   LREAL = .FALSE.
   ISPIN = 1
   NELM = 200
   NELMIN = 8
   NCORE = 4
   KPAR = 2
   LWAVE = .FALSE.
   LCHARG = .FALSE.

 POTCAR:    PAW_PBE C 08Apr2002                   
 POTCAR:    PAW_PBE O 08Apr2002                   
 POTCAR:    PAW_PBE Mg_pv 13Apr2007               
 POTCAR:    PAW_PBE O 08Apr2002                   
 -----------------------------------------------------------------------------
|                                                                             |
|               ----> ADVICE to this user running VASP <----                  |
|                                                                             |
|     You have switched on vdW-DFT.                                           |
|     This routine was written and supplied by Jiri Klimes. We recommend      |
|     that you carefully read and cite the following publications:            |
|       J. Klimes, D.R. Bowler, A. Michelides                                 |
|          J. Phys.: Cond Matt. 22 022201 (2010)                              |
|       J. Klimes, D.R. Bowler, A. Michelides                                 |
|          Phys. Rev. B. 83, 195131 (2011)                                    |
|     and references therein.                                                 |
|                                                                             |
 -----------------------------------------------------------------------------

 POTCAR:    PAW_PBE C 08Apr2002                   
   SHA256 =  253f7b50bb8d59471dbedb8285d89021f4a42ed1a2c5d38a03a736e69125dd95 C/POTCAR              
   COPYR  = (c) Copyright 08Apr2002 Georg Kresse                                                    
   COPYR  = This file is part of the software VASP. Any use, copying, and all other rights are regul
   COPYR  = If you do not have a valid VASP license, you may not use, copy or distribute this file. 
   VRHFIN =C: s2p2                                                                                  
   LEXCH  = PE                                                                                      
   EATOM  =   147.1560 eV,   10.8157 Ry                                                             
                                                                                                    
   TITEL  = PAW_PBE C 08Apr2002                                                                     
   LULTRA =        F    use ultrasoft PP ?                                                          
   IUNSCR =        1    unscreen: 0-lin 1-nonlin 2-no                                               
   RPACOR =    1.200    partial core radius                                                         
   POMASS =   12.011; ZVAL   =    4.000    mass and valenz                                          
   RCORE  =    1.500    outmost cutoff radius                                                       
   RWIGS  =    1.630; RWIGS  =    0.863    wigner-seitz radius (au A)                               
   ENMAX  =  400.000; ENMIN  =  300.000 eV                                                          
   ICORE  =        2    local potential                                                             
   LCOR   =        T    correct aug charges                                                         
   LPAW   =        T    paw PP                                                                      
   EAUG   =  644.873                                                                                
   DEXC   =    0.000                                                                                
   RMAX   =    1.529    core radius for proj-oper                                                   
   RAUG   =    1.300    factor for augmentation sphere                                              
   RDEP   =    1.501    radius for radial grids                                                     
   RDEPT  =    1.300    core radius for aug-charge                                                  
                                                                                                    
   Atomic configuration                                                                             
    4 entries                                                                                       
     n  l   j            E        occ.                                                              
     1  0  0.50      -273.3789   2.0000                                                             
     2  0  0.50       -13.7508   2.0000                                                             
     2  1  0.50        -5.2854   2.0000                                                             
     3  2  1.50        -5.4423   0.0000                                                             
   Description                                                                                      
     l       E           TYP  RCUT    TYP  RCUT                                                     
     0    -13.7508458     23  1.200                                                                 
     0     -8.2022199     23  1.200                                                                 
     1     -5.2854383     23  1.500                                                                 
     1     34.0145650     23  1.500                                                                 
     2     -5.4423304      7  1.500                                                                 
  local pseudopotential read in
  partial core-charges read in
  partial kinetic energy density read in
  atomic valenz-charges read in
  non local Contribution for L=           0  read in
    real space projection operators read in
  non local Contribution for L=           0  read in
    real space projection operators read in
  non local Contribution for L=           1  read in
    real space projection operators read in
  non local Contribution for L=           1  read in
    real space projection operators read in
    PAW grid and wavefunctions read in

   number of l-projection  operators is LMAX  =           4
   number of lm-projection operators is LMMAX =           8

 POTCAR:    PAW_PBE O 08Apr2002                   
   SHA256 =  818f92134a0a090dccd8ba1447fa70422a3b330e708bb4f08108d8ae51209ddf O/POTCAR              
   COPYR  = (c) Copyright 08Apr2002 Georg Kresse                                                    
   COPYR  = This file is part of the software VASP. Any use, copying, and all other rights are regul
   COPYR  = If you do not have a valid VASP license, you may not use, copy or distribute this file. 
   VRHFIN =O: s2p4                                                                                  
   LEXCH  = PE                                                                                      
   EATOM  =   432.3788 eV,   31.7789 Ry                                                             
                                                                                                    
   TITEL  = PAW_PBE O 08Apr2002                                                                     
   LULTRA =        F    use ultrasoft PP ?                                                          
   IUNSCR =        1    unscreen: 0-lin 1-nonlin 2-no                                               
   RPACOR =    1.200    partial core radius                                                         
   POMASS =   16.000; ZVAL   =    6.000    mass and valenz                                          
   RCORE  =    1.520    outmost cutoff radius                                                       
   RWIGS  =    1.550; RWIGS  =    0.820    wigner-seitz radius (au A)                               
   ENMAX  =  400.000; ENMIN  =  300.000 eV                                                          
   ICORE  =        2    local potential                                                             
   LCOR   =        T    correct aug charges                                                         
   LPAW   =        T    paw PP                                                                      
   EAUG   =  605.392                                                                                
   DEXC   =    0.000                                                                                
   RMAX   =    1.553    core radius for proj-oper                                                   
   RAUG   =    1.300    factor for augmentation sphere                                              
   RDEP   =    1.550    radius for radial grids                                                     
   RDEPT  =    1.329    core radius for aug-charge                                                  
                                                                                                    
   Atomic configuration                                                                             
    4 entries                                                                                       
     n  l   j            E        occ.                                                              
     1  0  0.50      -514.6923   2.0000                                                             
     2  0  0.50       -23.9615   2.0000                                                             
     2  1  0.50        -9.0305   4.0000                                                             
     3  2  1.50        -9.5241   0.0000                                                             
   Description                                                                                      
     l       E           TYP  RCUT    TYP  RCUT                                                     
     0    -23.9615318     23  1.200                                                                 
     0     -9.5240782     23  1.200                                                                 
     1     -9.0304911     23  1.520                                                                 
     1      8.1634956     23  1.520                                                                 
     2     -9.5240782      7  1.500                                                                 
  local pseudopotential read in
  partial core-charges read in
  partial kinetic energy density read in
  kinetic energy density of atom read in
  atomic valenz-charges read in
  non local Contribution for L=           0  read in
    real space projection operators read in
  non local Contribution for L=           0  read in
    real space projection operators read in
  non local Contribution for L=           1  read in
    real space projection operators read in
  non local Contribution for L=           1  read in
    real space projection operators read in
    PAW grid and wavefunctions read in

   number of l-projection  operators is LMAX  =           4
   number of lm-projection operators is LMMAX =           8

 POTCAR:    PAW_PBE Mg_pv 13Apr2007               
   SHA256 =  f474ac0dd33840b9ae76c01d57fea79fdf77cdfbb07d5ade72c65f83c709b62b Mg_pv/POTCAR          
   COPYR  = (c) Copyright 13Apr2007 Georg Kresse                                                    
   COPYR  = This file is part of the software VASP. Any use, copying, and all other rights are regul
   COPYR  = If you do not have a valid VASP license, you may not use, copy or distribute this file. 
   VRHFIN =Mg: p6s2                                                                                 
   LEXCH  = PE                                                                                      
   EATOM  =  1056.7344 eV,   77.6678 Ry                                                             
                                                                                                    
   TITEL  = PAW_PBE Mg_pv 13Apr2007                                                                 
   LULTRA =        F    use ultrasoft PP ?                                                          
   IUNSCR =        1    unscreen: 0-lin 1-nonlin 2-no                                               
   RPACOR =    1.500    partial core radius                                                         
   POMASS =   24.305; ZVAL   =    8.000    mass and valenz                                          
   RCORE  =    2.000    outmost cutoff radius                                                       
   RWIGS  =    2.000; RWIGS  =    1.058    wigner-seitz radius (au A)                               
   ENMAX  =  403.929; ENMIN  =  302.947 eV                                                          
   RCLOC  =    1.506    cutoff for local pot                                                        
   LCOR   =        T    correct aug charges                                                         
   LPAW   =        T    paw PP                                                                      
   EAUG   =  758.780                                                                                
   DEXC   =    0.000                                                                                
   RMAX   =    2.045    core radius for proj-oper                                                   
   RAUG   =    1.300    factor for augmentation sphere                                              
   RDEP   =    2.025    radius for radial grids                                                     
   RDEPT  =    1.557    core radius for aug-charge                                                  
                                                                                                    
   Atomic configuration                                                                             
    5 entries                                                                                       
     n  l   j            E        occ.                                                              
     1  0  0.50     -1259.6230   2.0000                                                             
     2  0  0.50       -79.8442   2.0000                                                             
     2  1  1.50       -46.6121   6.0000                                                             
     3  0  0.50        -4.7055   2.0000                                                             
     3  2  1.50        -1.3606   0.0000                                                             
   Description                                                                                      
     l       E           TYP  RCUT    TYP  RCUT                                                     
     1    -46.6121073     23  1.600                                                                 
     1      2.7211652     23  1.600                                                                 
     0     -4.7054661     23  2.000                                                                 
     0     61.2262170     23  2.000                                                                 
     2     -1.3605826     23  2.000                                                                 
  local pseudopotential read in
  partial core-charges read in
  partial kinetic energy density read in
  atomic valenz-charges read in
  non local Contribution for L=           1  read in
    real space projection operators read in
  non local Contribution for L=           1  read in
    real space projection operators read in
  non local Contribution for L=           0  read in
    real space projection operators read in
  non local Contribution for L=           0  read in
    real space projection operators read in
  non local Contribution for L=           2  read in
    real space projection operators read in
    PAW grid and wavefunctions read in

   number of l-projection  operators is LMAX  =           5
   number of lm-projection operators is LMMAX =          13

 POTCAR:    PAW_PBE O 08Apr2002                   
   SHA256 =  818f92134a0a090dccd8ba1447fa70422a3b330e708bb4f08108d8ae51209ddf O/POTCAR              
   COPYR  = (c) Copyright 08Apr2002 Georg Kresse                                                    
   COPYR  = This file is part of the software VASP. Any use, copying, and all other rights are regul
   COPYR  = If you do not have a valid VASP license, you may not use, copy or distribute this file. 
   VRHFIN =O: s2p4                                                                                  
   LEXCH  = PE                                                                                      
   EATOM  =   432.3788 eV,   31.7789 Ry                                                             
                                                                                                    
   TITEL  = PAW_PBE O 08Apr2002                                                                     
   LULTRA =        F    use ultrasoft PP ?                                                          
   IUNSCR =        1    unscreen: 0-lin 1-nonlin 2-no                                               
   RPACOR =    1.200    partial core radius                                                         
   POMASS =   16.000; ZVAL   =    6.000    mass and valenz                                          
   RCORE  =    1.520    outmost cutoff radius                                                       
   RWIGS  =    1.550; RWIGS  =    0.820    wigner-seitz radius (au A)                               
   ENMAX  =  400.000; ENMIN  =  300.000 eV                                                          
   ICORE  =        2    local potential                                                             
   LCOR   =        T    correct aug charges                                                         
   LPAW   =        T    paw PP                                                                      
   EAUG   =  605.392                                                                                
   DEXC   =    0.000                                                                                
   RMAX   =    1.553    core radius for proj-oper                                                   
   RAUG   =    1.300    factor for augmentation sphere                                              
   RDEP   =    1.550    radius for radial grids                                                     
   RDEPT  =    1.329    core radius for aug-charge                                                  
                                                                                                    
   Atomic configuration                                                                             
    4 entries                                                                                       
     n  l   j            E        occ.                                                              
     1  0  0.50      -514.6923   2.0000                                                             
     2  0  0.50       -23.9615   2.0000                                                             
     2  1  0.50        -9.0305   4.0000                                                             
     3  2  1.50        -9.5241   0.0000                                                             
   Description                                                                                      
     l       E           TYP  RCUT    TYP  RCUT                                                     
     0    -23.9615318     23  1.200                                                                 
     0     -9.5240782     23  1.200                                                                 
     1     -9.0304911     23  1.520                                                                 
     1      8.1634956     23  1.520                                                                 
     2     -9.5240782      7  1.500                                                                 
  local pseudopotential read in
  partial core-charges read in
  partial kinetic energy density read in
  kinetic energy density of atom read in
  atomic valenz-charges read in
  non local Contribution for L=           0  read in
    real space projection operators read in
  non local Contribution for L=           0  read in
    real space projection operators read in
  non local Contribution for L=           1  read in
    real space projection operators read in
  non local Contribution for L=           1  read in
    real space projection operators read in
    PAW grid and wavefunctions read in

   number of l-projection  operators is LMAX  =           4
   number of lm-projection operators is LMMAX =           8

 -----------------------------------------------------------------------------
|                                                                             |
|               ----> ADVICE to this user running VASP <----                  |
|                                                                             |
|     You have a (more or less) 'large supercell' and for larger cells it     |
|     might be more efficient to use real-space projection operators.         |
|     Therefore, try LREAL= Auto in the INCAR file.                           |
|     Mind: For very accurate calculation, you might also keep the            |
|     reciprocal projection scheme (i.e. LREAL=.FALSE.).                      |
|                                                                             |
 -----------------------------------------------------------------------------

 -----------------------------------------------------------------------------
|                                                                             |
|               ----> ADVICE to this user running VASP <----                  |
|                                                                             |
|     You enforced a specific xc type in the INCAR file but a different       |
|     type was found in the POTCAR file.                                      |
|     I HOPE YOU KNOW WHAT YOU ARE DOING!                                     |
|                                                                             |
 -----------------------------------------------------------------------------

  PAW_PBE C 08Apr2002                   :
 energy of atom  1       EATOM= -147.1560
 kinetic energy error for atom=    0.0057 (will be added to EATOM!!)
  PAW_PBE O 08Apr2002                   :
 energy of atom  2       EATOM= -432.3788
 kinetic energy error for atom=    0.0168 (will be added to EATOM!!)
  PAW_PBE Mg_pv 13Apr2007               :
 energy of atom  3       EATOM=-1056.7344
 kinetic energy error for atom=    0.0221 (will be added to EATOM!!)
  PAW_PBE O 08Apr2002                   :
 energy of atom  4       EATOM= -432.3788
 kinetic energy error for atom=    0.0168 (will be added to EATOM!!)


 POSCAR:  C  O Mg  O
  positions in direct lattice
  No initial velocities read in
 exchange correlation table for  LEXCH =       43
   RHO(1)=    0.500       N(1)  =     2000
   RHO(2)=  100.500       N(2)  =     4000



--------------------------------------------------------------------------------------------------------


 ion  position               nearest neighbor table
   1  0.500  0.500  0.767-   2 1.15
   2  0.500  0.500  0.821-   1 1.15
   3  0.000  0.750  0.352-  35 2.11  37 2.11  38 2.11  45 2.11  54 2.11
   4  0.250  0.000  0.352-  36 2.11  37 2.11  38 2.11  46 2.11  53 2.11
   5  0.000  0.000  0.451-  37 2.11  36 2.11  35 2.11  43 2.11  52 2.11  41 2.12
   6  0.250  0.750  0.451-  38 2.11  36 2.11  35 2.11  44 2.11  51 2.11  42 2.12
   7  0.000  0.750  0.550-  49 2.11  42 2.11  58 2.11  41 2.11  35 2.12  39 2.15
   8  0.250  0.000  0.550-  57 2.11  50 2.11  42 2.11  41 2.11  36 2.12  40 2.15
   9  0.000  0.000  0.649-  39 2.11  40 2.11  47 2.11  56 2.11  41 2.11
  10  0.250  0.750  0.649-  42 2.11  40 2.11  39 2.11  48 2.11  55 2.11
  11  0.000  0.250  0.352-  43 2.11  37 2.11  45 2.11  46 2.11  62 2.11
  12  0.250  0.500  0.352-  44 2.11  38 2.11  45 2.11  46 2.11  61 2.11
  13  0.000  0.500  0.451-  45 2.11  43 2.11  44 2.11  35 2.11  60 2.11  49 2.12
  14  0.250  0.250  0.451-  46 2.11  43 2.11  44 2.11  36 2.11  59 2.11  50 2.12
  15  0.000  0.250  0.550-  49 2.11  50 2.11  66 2.11  41 2.11  43 2.12  47 2.15
  16  0.250  0.500  0.550-  65 2.11  50 2.11  42 2.11  49 2.11  44 2.13  48 2.15
  17  0.000  0.500  0.649-  48 2.10  64 2.10  49 2.11  47 2.11  39 2.11
  18  0.250  0.250  0.649-  50 2.11  47 2.11  40 2.11  48 2.11  63 2.11
  19  0.500  0.750  0.352-  51 2.11  38 2.11  53 2.11  54 2.11  61 2.11
  20  0.750  0.000  0.352-  52 2.11  37 2.11  53 2.11  54 2.11  62 2.11
  21  0.500  0.000  0.451-  53 2.11  51 2.11  52 2.11  36 2.11  59 2.11  57 2.12
  22  0.750  0.750  0.451-  54 2.11  51 2.11  52 2.11  35 2.11  60 2.11  58 2.12
  23  0.500  0.750  0.550-  65 2.11  58 2.11  42 2.11  57 2.11  51 2.13  55 2.15
  24  0.750  0.000  0.550-  57 2.11  58 2.11  66 2.11  41 2.11  52 2.12  56 2.15
  25  0.500  0.000  0.649-  55 2.10  63 2.10  57 2.11  40 2.11  56 2.11
  26  0.750  0.750  0.649-  58 2.11  56 2.11  39 2.11  55 2.11  64 2.11
  27  0.500  0.250  0.352-  59 2.11  53 2.11  46 2.11  61 2.11  62 2.11
  28  0.750  0.500  0.352-  60 2.11  54 2.11  45 2.11  61 2.11  62 2.11
  29  0.500  0.500  0.451-  61 2.11  51 2.11  59 2.11  60 2.11  44 2.11  65 2.13
  30  0.750  0.250  0.451-  62 2.11  52 2.11  59 2.11  60 2.11  43 2.11  66 2.12
  31  0.500  0.250  0.550-  65 2.11  50 2.11  66 2.11  57 2.11  59 2.13  63 2.15
  32  0.750  0.500  0.550-  65 2.11  58 2.11  66 2.11  49 2.11  60 2.13  64 2.15
  33  0.500  0.500  0.651-  48 2.12  55 2.12  63 2.12  64 2.12  65 2.14
  34  0.750  0.250  0.649-  66 2.11  56 2.11  47 2.11  64 2.11  63 2.11
  35  0.000  0.750  0.451-   3 2.11   5 2.11   6 2.11  13 2.11  22 2.11   7 2.12
  36  0.250  0.000  0.451-   4 2.11   5 2.11   6 2.11  14 2.11  21 2.11   8 2.12
  37  0.000  0.000  0.352-   5 2.11   4 2.11   3 2.11  11 2.11  20 2.11
  38  0.250  0.750  0.352-   6 2.11   4 2.11   3 2.11  12 2.11  19 2.11
  39  0.000  0.750  0.651-   9 2.11  10 2.11  26 2.11  17 2.11   7 2.15
  40  0.250  0.000  0.651-   9 2.11  10 2.11  18 2.11  25 2.11   8 2.15
  41  0.000  0.000  0.550-   9 2.11   8 2.11   7 2.11  15 2.11  24 2.11   5 2.12
  42  0.250  0.750  0.550-  10 2.11   8 2.11   7 2.11  16 2.11  23 2.11   6 2.12
  43  0.000  0.250  0.451-  11 2.11   5 2.11  13 2.11  14 2.11  30 2.11  15 2.12
  44  0.250  0.500  0.451-  12 2.11   6 2.11  13 2.11  14 2.11  29 2.11  16 2.13
  45  0.000  0.500  0.352-  13 2.11  11 2.11  12 2.11   3 2.11  28 2.11
  46  0.250  0.250  0.352-  14 2.11  11 2.11  12 2.11   4 2.11  27 2.11
  47  0.000  0.250  0.651-   9 2.11  18 2.11  34 2.11  17 2.11  15 2.15
  48  0.249  0.500  0.651-  17 2.10  10 2.11  18 2.11  33 2.12  16 2.15
  49  0.000  0.500  0.550-  17 2.11  15 2.11   7 2.11  16 2.11  32 2.11  13 2.12
  50  0.250  0.250  0.550-  18 2.11  15 2.11   8 2.11  16 2.11  31 2.11  14 2.12
  51  0.500  0.750  0.451-  19 2.11   6 2.11  21 2.11  22 2.11  29 2.11  23 2.13
  52  0.750  0.000  0.451-  20 2.11   5 2.11  21 2.11  22 2.11  30 2.11  24 2.12
  53  0.500  0.000  0.352-  21 2.11  19 2.11  20 2.11   4 2.11  27 2.11
  54  0.750  0.750  0.352-  22 2.11  19 2.11  20 2.11   3 2.11  28 2.11
  55  0.500  0.751  0.651-  25 2.10  10 2.11  26 2.11  33 2.12  23 2.15
  56  0.750  0.000  0.651-   9 2.11  26 2.11  34 2.11  25 2.11  24 2.15
  57  0.500  0.000  0.550-  25 2.11  24 2.11   8 2.11  23 2.11  31 2.11  21 2.12
  58  0.750  0.750  0.550-  26 2.11  24 2.11   7 2.11  32 2.11  23 2.11  22 2.12
  59  0.500  0.250  0.451-  27 2.11  21 2.11  14 2.11  29 2.11  30 2.11  31 2.13
  60  0.750  0.500  0.451-  28 2.11  22 2.11  13 2.11  29 2.11  30 2.11  32 2.13
  61  0.500  0.500  0.352-  29 2.11  19 2.11  27 2.11  28 2.11  12 2.11
  62  0.750  0.250  0.352-  30 2.11  20 2.11  27 2.11  28 2.11  11 2.11
  63  0.500  0.249  0.651-  25 2.10  18 2.11  34 2.11  33 2.12  31 2.15
  64  0.751  0.500  0.651-  17 2.10  26 2.11  34 2.11  33 2.12  32 2.15
  65  0.500  0.500  0.550-  16 2.11  23 2.11  31 2.11  32 2.11  29 2.13  33 2.14
  66  0.750  0.250  0.550-  34 2.11  24 2.11  15 2.11  32 2.11  31 2.11  30 2.12

  LATTYP: Found a simple tetragonal cell.
 ALAT       =     8.4409846542
 C/A-ratio  =     2.5270438657
  
  Lattice vectors:
  
 A1 = (   8.4409846542,   0.0000000000,   0.0000000000)
 A2 = (   0.0000000000,   8.4409846542,   0.0000000000)
 A3 = (   0.0000000000,   0.0000000000,  21.3307384906)


Analysis of symmetry for initial positions (statically):
=====================================================================
 Subroutine PRICEL returns:
 Original cell was already a primitive cell.
 

 Routine SETGRP: Setting up the symmetry group for a 
 simple tetragonal supercell.


 Subroutine GETGRP returns: Found  8 space group operations
 (whereof  8 operations were pure point group operations)
 out of a pool of 16 trial point group operations.


The static configuration has the point symmetry C_4v.


Analysis of symmetry for dynamics (positions and initial velocities):
=====================================================================
 Subroutine PRICEL returns:
 Original cell was already a primitive cell.
 

 Routine SETGRP: Setting up the symmetry group for a 
 simple tetragonal supercell.


 Subroutine GETGRP returns: Found  8 space group operations
 (whereof  8 operations were pure point group operations)
 out of a pool of 16 trial point group operations.


The dynamic configuration has the point symmetry C_4v.


 Subroutine INISYM returns: Found  8 space group operations
 (whereof  8 operations are pure point group operations),
 and found     1 'primitive' translations


----------------------------------------------------------------------------------------

                                     Primitive cell                                     

  volume of cell :    1519.8199

  direct lattice vectors                    reciprocal lattice vectors
     8.440984654  0.000000000  0.000000000     0.118469591  0.000000000  0.000000000
     0.000000000  8.440984654  0.000000000     0.000000000  0.118469591  0.000000000
     0.000000000  0.000000000 21.330738491     0.000000000  0.000000000  0.046880702

  length of vectors
     8.440984654  8.440984654 21.330738491     0.118469591  0.118469591  0.046880702

  position of ions in fractional coordinates (direct lattice)
     0.500000000  0.500000000  0.766881102
     0.500000000  0.500000000  0.820644820
     0.000000000  0.750000000  0.351605267
     0.250000000  0.000000000  0.351605267
     0.000000000  0.000000000  0.450535089
     0.250000000  0.750000000  0.450535089
     0.000000000  0.749939268  0.550083239
     0.250060732  0.000000000  0.550083239
     0.000000000  0.000000000  0.648745309
     0.249858327  0.750141673  0.648569547
     0.000000000  0.250000000  0.351605267
     0.250000000  0.500000000  0.351605267
     0.000000000  0.500000000  0.450535089
     0.250000000  0.250000000  0.450535089
     0.000000000  0.250060732  0.550083239
     0.250378379  0.500000000  0.550219524
     0.000000000  0.500000000  0.648615280
     0.249858327  0.249858327  0.648569547
     0.500000000  0.750000000  0.351605267
     0.750000000  0.000000000  0.351605267
     0.500000000  0.000000000  0.450535089
     0.750000000  0.750000000  0.450535089
     0.500000000  0.749621621  0.550219524
     0.749939268  0.000000000  0.550083239
     0.500000000  0.000000000  0.648615280
     0.750141673  0.750141673  0.648569547
     0.500000000  0.250000000  0.351605267
     0.750000000  0.500000000  0.351605267
     0.500000000  0.500000000  0.450535089
     0.750000000  0.250000000  0.450535089
     0.500000000  0.250378379  0.550219524
     0.749621621  0.500000000  0.550219524
     0.500000000  0.500000000  0.650616960
     0.750141673  0.249858327  0.648569547
     0.000000000  0.750000000  0.450535089
     0.250000000  0.000000000  0.450535089
     0.000000000  0.000000000  0.351605267
     0.250000000  0.750000000  0.351605267
     0.000000000  0.750218533  0.650979255
     0.249781467  0.000000000  0.650979255
     0.000000000  0.000000000  0.549809890
     0.249945770  0.750054230  0.549859113
     0.000000000  0.250000000  0.450535089
     0.250000000  0.500000000  0.450535089
     0.000000000  0.500000000  0.351605267
     0.250000000  0.250000000  0.351605267
     0.000000000  0.249781467  0.650979255
     0.248822710  0.500000000  0.650882872
     0.000000000  0.500000000  0.549762666
     0.249945770  0.249945770  0.549859113
     0.500000000  0.750000000  0.450535089
     0.750000000  0.000000000  0.450535089
     0.500000000  0.000000000  0.351605267
     0.750000000  0.750000000  0.351605267
     0.500000000  0.751177290  0.650882872
     0.750218533  0.000000000  0.650979255
     0.500000000  0.000000000  0.549762666
     0.750054230  0.750054230  0.549859113
     0.500000000  0.250000000  0.450535089
     0.750000000  0.500000000  0.450535089
     0.500000000  0.500000000  0.351605267
     0.750000000  0.250000000  0.351605267
     0.500000000  0.248822710  0.650882872
     0.751177290  0.500000000  0.650882872
     0.500000000  0.500000000  0.550231357
     0.750054230  0.249945770  0.549859113

  ion indices of the primitive-cell ions
   primitive index   ion index
                 1           1
                 2           2
                 3           3
                 4           4
                 5           5
                 6           6
                 7           7
                 8           8
                 9           9
                10          10
                11          11
                12          12
                13          13
                14          14
                15          15
                16          16
                17          17
                18          18
                19          19
                20          20
                21          21
                22          22
                23          23
                24          24
                25          25
                26          26
                27          27
                28          28
                29          29
                30          30
                31          31
                32          32
                33          33
                34          34
                35          35
                36          36
                37          37
                38          38
                39          39
                40          40
                41          41
                42          42
                43          43
                44          44
                45          45
                46          46
                47          47
                48          48
                49          49
                50          50
                51          51
                52          52
                53          53
                54          54
                55          55
                56          56
                57          57
                58          58
                59          59
                60          60
                61          61
                62          62
                63          63
                64          64
                65          65
                66          66

----------------------------------------------------------------------------------------



 KPOINTS: pymatgen v2020.8.13 with grid density = 

Automatic generation of k-mesh.
 Grid dimensions read from file:
 generate k-points for:    2    2    1

 Generating k-lattice:

  Cartesian coordinates                     Fractional coordinates (reciprocal lattice)
     0.059234796  0.000000000  0.000000000     0.500000000  0.000000000  0.000000000
     0.000000000  0.059234796  0.000000000     0.000000000  0.500000000  0.000000000
     0.000000000  0.000000000  0.046880702     0.000000000  0.000000000  1.000000000

  Length of vectors
     0.059234796  0.059234796  0.046880702

  Shift w.r.t. Gamma in fractional coordinates (k-lattice)
     0.000000000  0.000000000  0.000000000

 
 Subroutine IBZKPT returns following result:
 ===========================================
 
 Found      3 irreducible k-points:
 
 Following reciprocal coordinates:
            Coordinates               Weight
  0.000000  0.000000  0.000000      1.000000
  0.500000  0.000000  0.000000      2.000000
  0.500000  0.500000  0.000000      1.000000
 
 Following cartesian coordinates:
            Coordinates               Weight
  0.000000  0.000000  0.000000      1.000000
  0.059235  0.000000  0.000000      2.000000
  0.059235  0.059235  0.000000      1.000000
 


--------------------------------------------------------------------------------------------------------




 Dimension of arrays:
   k-points           NKPTS =      3   k-points in BZ     NKDIM =      3   number of bands    NBANDS=    320
   number of dos      NEDOS =    301   number of ions     NIONS =     66
   non local maximal  LDIM  =      5   non local SUM 2l+1 LMDIM =     13
   total plane-waves  NPLWV = 373248
   max r-space proj   IRMAX =      1   max aug-charges    IRDMAX=   5039
   dimension x,y,z NGX =    54 NGY =   54 NGZ =  128
   dimension x,y,z NGXF=   108 NGYF=  108 NGZF=  256
   support grid    NGXF=   108 NGYF=  108 NGZF=  256
   ions per type =               1   1  32  32
   NGX,Y,Z   is equivalent  to a cutoff of  10.64, 10.64,  9.98 a.u.
   NGXF,Y,Z  is equivalent  to a cutoff of  21.27, 21.27, 19.95 a.u.

 SYSTEM =  MgO-rocksalt                            
 POSCAR =   C  O Mg  O                             

 Startparameter for this run:
   NWRITE =      2    write-flag & timer
   PREC   = normal    normal or accurate (medium, high low for compatibility)
   ISTART =      0    job   : 0-new  1-cont  2-samecut
   ICHARG =      2    charge: 1-file 2-atom 10-const
   ISPIN  =      1    spin polarized calculation?
   LNONCOLLINEAR =      F non collinear calculations
   LSORBIT =      F    spin-orbit coupling
   INIWAV =      1    electr: 0-lowe 1-rand  2-diag
   LASPH  =      T    aspherical Exc in radial PAW
 Electronic Relaxation 1
   ENCUT  =  600.0 eV  44.10 Ry    6.64 a.u.  16.86 16.86 42.60*2*pi/ulx,y,z
   ENINI  =  600.0     initial cutoff
   ENAUG  =  758.8 eV  augmentation charge cutoff
   NELM   =    200;   NELMIN=  8; NELMDL= -5     # of ELM steps 
   EDIFF  = 0.1E-05   stopping-criterion for ELM
   LREAL  =      F    real-space projection
   NLSPLINE    = F    spline interpolate recip. space projectors
   LCOMPAT=      F    compatible to vasp.4.4
   GGA_COMPAT  = T    GGA compatible to vasp.4.4-vasp.4.6
   LMAXPAW     = -100 max onsite density
   LMAXMIX     =    2 max onsite mixed and CHGCAR
   VOSKOWN=      0    Vosko Wilk Nusair interpolation
   ROPT   =    0.00000   0.00000   0.00000   0.00000
 Ionic relaxation
   EDIFFG = -.1E-01   stopping-criterion for IOM
   NSW    =      0    number of steps for IOM
   NBLOCK =      1;   KBLOCK =      1    inner block; outer block 
   IBRION =     -1    ionic relax: 0-MD 1-quasi-New 2-CG
   NFREE  =      0    steps in history (QN), initial steepest desc. (CG)
   ISIF   =      2    stress and relaxation
   IWAVPR =     10    prediction:  0-non 1-charg 2-wave 3-comb
   ISYM   =      2    0-nonsym 1-usesym 2-fastsym
   LCORR  =      T    Harris-Foulkes like correction to forces

   POTIM  = 0.5000    time-step for ionic-motion
   TEIN   =    0.0    initial temperature
   TEBEG  =    0.0;   TEEND  =   0.0 temperature during run
   SMASS  =  -3.00    Nose mass-parameter (am)
   estimated Nose-frequenzy (Omega)   =  0.10E-29 period in steps = 0.13E+47 mass=  -0.163E-26a.u.
   SCALEE = 1.0000    scale energy and forces
   NPACO  =    256;   APACO  = 10.0  distance and # of slots for P.C.
   PSTRESS=    0.0 pullay stress

  Mass of Ions in am
   POMASS =  12.01 16.00 24.30 16.00
  Ionic Valenz
   ZVAL   =   4.00  6.00  8.00  6.00
  Atomic Wigner-Seitz radii
   RWIGS  =  -1.00 -1.00 -1.00 -1.00
  virtual crystal weights 
   VCA    =   1.00  1.00  1.00  1.00
   NELECT =     458.0000    total number of electrons
   NUPDOWN=      -1.0000    fix difference up-down

 DOS related values:
   EMIN   =  10.00;   EMAX   =-10.00  energy-range for DOS
   EFERMI =   0.00
   ISMEAR =     0;   SIGMA  =   0.05  broadening in eV -4-tet -1-fermi 0-gaus

 Electronic relaxation 2 (details)
   IALGO  =     58    algorithm
   LDIAG  =      T    sub-space diagonalisation (order eigenvalues)
   LSUBROT=      F    optimize rotation matrix (better conditioning)
   TURBO    =      0    0=normal 1=particle mesh
   IRESTART =      0    0=no restart 2=restart with 2 vectors
   NREBOOT  =      0    no. of reboots
   NMIN     =      0    reboot dimension
   EREF     =   0.00    reference energy to select bands
   IMIX   =      4    mixing-type and parameters
     AMIX     =   0.40;   BMIX     =  1.00
     AMIX_MAG =   1.60;   BMIX_MAG =  1.00
     AMIN     =   0.10
     WC   =   100.;   INIMIX=   1;  MIXPRE=   1;  MAXMIX= -45

 Intra band minimization:
   WEIMIN = 0.0000     energy-eigenvalue tresh-hold
   EBREAK =  0.78E-09  absolut break condition
   DEPER  =   0.30     relativ break condition  

   TIME   =   0.40     timestep for ELM

  volume/ion in A,a.u.               =      23.03       155.40
  Fermi-wavevector in a.u.,A,eV,Ry     =   1.097571  2.074108 16.390423  1.204662
  Thomas-Fermi vector in A             =   2.233933

 Write flags
   LWAVE        =      F    write WAVECAR
   LDOWNSAMPLE  =      F    k-point downsampling of WAVECAR
   LCHARG       =      F    write CHGCAR
   LVTOT        =      F    write LOCPOT, total local potential
   LVHAR        =      F    write LOCPOT, Hartree potential only
   LELF         =      F    write electronic localiz. function (ELF)
   LORBIT       =      0    0 simple, 1 ext, 2 COOP (PROOUT), +10 PAW based schemes


 Dipole corrections
   LMONO  =      F    monopole corrections only (constant potential shift)
   LDIPOL =      T    correct potential (dipole corrections)
   IDIPOL =      3    1-x, 2-y, 3-z, 4-all directions 
   EPSILON=  1.0000000 bulk dielectric constant

 Exchange correlation treatment:
   GGA     =    MK    GGA type
   LEXCH   =    43    internal setting for exchange type
   LIBXC   =     F    Libxc                    
   VOSKOWN =     0    Vosko Wilk Nusair interpolation
   LHFCALC =     F    Hartree Fock is set to
   LHFONE  =     F    Hartree Fock one center treatment
   AEXX    =    0.0000 exact exchange contribution

 vdW DFT:
   LUSE_VDW   =     T    switch on vdW DFT
   Zab_VDW    =******    correlation parameter
   PARAM1     =0.1234
   PARAM2     =0.7114
   PARAM3     =0.0000
   -- rVV10 --
   BPARAM     = 6.3000
   CPARAM     = 0.0093

 Linear response parameters
   LEPSILON=     F    determine dielectric tensor
   LRPA    =     F    only Hartree local field effects (RPA)
   LNABLA  =     F    use nabla operator in PAW spheres
   LVEL    =     F    velocity operator in full k-point grid
   CSHIFT  =0.1000    complex shift for real part using Kramers Kronig
   OMEGAMAX=  -1.0    maximum frequency
   DEG_THRESHOLD= 0.2000000E-02 threshold for treating states as degnerate
   RTIME   =   -0.100 relaxation time in fs
  (WPLASMAI=    0.000 imaginary part of plasma frequency in eV, 0.658/RTIME)
   DFIELD  = 0.0000000 0.0000000 0.0000000 field for delta impulse in time

  Optional k-point grid parameters
   LKPOINTS_OPT  =     F    use optional k-point grid
   KPOINTS_OPT_MODE=     1    mode for optional k-point grid

 Orbital magnetization related:
   ORBITALMAG=     F  switch on orbital magnetization
   LCHIMAG   =     F  perturbation theory with respect to B field
   DQ        =  0.001000  dq finite difference perturbation B field
   LLRAUG    =     F  two centre corrections for induced B field



--------------------------------------------------------------------------------------------------------


 Static calculation
 charge density and potential will be updated during run
 non-spin polarized calculation
 Conjugate gradient for all bands (Freysoldt, et al. PRB 79, 241103 (2009))
 preconditioned conjugated gradient                                        
 perform sub-space diagonalisation
    before iterative eigenvector-optimisation
 modified Broyden-mixing scheme, WC =      100.0
 initial mixing is a Kerker type mixing with AMIX =  0.4000 and BMIX =      1.0000
 Hartree-type preconditioning will be used
 using additional bands           91
 reciprocal scheme for non local part
 use partial core corrections
 no Harris-corrections to forces 
 use gradient corrections 
 use of overlap-Matrix (Vanderbilt PP)
 Gauss-broadening in eV      SIGMA  =   0.05


--------------------------------------------------------------------------------------------------------


  energy-cutoff  :      600.00
  volume of cell :     1519.82
      direct lattice vectors                 reciprocal lattice vectors
     8.440984654  0.000000000  0.000000000     0.118469591  0.000000000  0.000000000
     0.000000000  8.440984654  0.000000000     0.000000000  0.118469591  0.000000000
     0.000000000  0.000000000 21.330738491     0.000000000  0.000000000  0.046880702

  length of vectors
     8.440984654  8.440984654 21.330738491     0.118469591  0.118469591  0.046880702



 k-points in units of 2pi/SCALE and weight: pymatgen v2020.8.13 with grid density = 
   0.00000000  0.00000000  0.00000000       0.250
   0.05923480  0.00000000  0.00000000       0.500
   0.05923480  0.05923480  0.00000000       0.250

 k-points in reciprocal lattice and weights: pymatgen v2020.8.13 with grid density = 
   0.00000000  0.00000000  0.00000000       0.250
   0.50000000  0.00000000  0.00000000       0.500
   0.50000000  0.50000000  0.00000000       0.250

 position of ions in fractional coordinates (direct lattice) 
   0.50000000  0.50000000  0.76688110
   0.50000000  0.50000000  0.82064482
   0.00000000  0.75000000  0.35160527
   0.25000000  0.00000000  0.35160527
   0.00000000  0.00000000  0.45053509
   0.25000000  0.75000000  0.45053509
   0.00000000  0.74993927  0.55008324
   0.25006073  0.00000000  0.55008324
   0.00000000  0.00000000  0.64874531
   0.24985833  0.75014167  0.64856955
   0.00000000  0.25000000  0.35160527
   0.25000000  0.50000000  0.35160527
   0.00000000  0.50000000  0.45053509
   0.25000000  0.25000000  0.45053509
   0.00000000  0.25006073  0.55008324
   0.25037838  0.50000000  0.55021952
   0.00000000  0.50000000  0.64861528
   0.24985833  0.24985833  0.64856955
   0.50000000  0.75000000  0.35160527
   0.75000000  0.00000000  0.35160527
   0.50000000  0.00000000  0.45053509
   0.75000000  0.75000000  0.45053509
   0.50000000  0.74962162  0.55021952
   0.74993927  0.00000000  0.55008324
   0.50000000  0.00000000  0.64861528
   0.75014167  0.75014167  0.64856955
   0.50000000  0.25000000  0.35160527
   0.75000000  0.50000000  0.35160527
   0.50000000  0.50000000  0.45053509
   0.75000000  0.25000000  0.45053509
   0.50000000  0.25037838  0.55021952
   0.74962162  0.50000000  0.55021952
   0.50000000  0.50000000  0.65061696
   0.75014167  0.24985833  0.64856955
   0.00000000  0.75000000  0.45053509
   0.25000000  0.00000000  0.45053509
   0.00000000  0.00000000  0.35160527
   0.25000000  0.75000000  0.35160527
   0.00000000  0.75021853  0.65097926
   0.24978147  0.00000000  0.65097926
   0.00000000  0.00000000  0.54980989
   0.24994577  0.75005423  0.54985911
   0.00000000  0.25000000  0.45053509
   0.25000000  0.50000000  0.45053509
   0.00000000  0.50000000  0.35160527
   0.25000000  0.25000000  0.35160527
   0.00000000  0.24978147  0.65097926
   0.24882271  0.50000000  0.65088287
   0.00000000  0.50000000  0.54976267
   0.24994577  0.24994577  0.54985911
   0.50000000  0.75000000  0.45053509
   0.75000000  0.00000000  0.45053509
   0.50000000  0.00000000  0.35160527
   0.75000000  0.75000000  0.35160527
   0.50000000  0.75117729  0.65088287
   0.75021853  0.00000000  0.65097926
   0.50000000  0.00000000  0.54976267
   0.75005423  0.75005423  0.54985911
   0.50000000  0.25000000  0.45053509
   0.75000000  0.50000000  0.45053509
   0.50000000  0.50000000  0.35160527
   0.75000000  0.25000000  0.35160527
   0.50000000  0.24882271  0.65088287
   0.75117729  0.50000000  0.65088287
   0.50000000  0.50000000  0.55023136
   0.75005423  0.24994577  0.54985911

 position of ions in cartesian coordinates  (Angst):
   4.22049233  4.22049233 16.35814023
   4.22049233  4.22049233 17.50496005
   0.00000000  6.33073849  7.50000000
   2.11024616  0.00000000  7.50000000
   0.00000000  0.00000000  9.61024616
   2.11024616  6.33073849  9.61024616
   0.00000000  6.33022585 11.73368172
   2.11075880  0.00000000 11.73368172
   0.00000000  0.00000000 13.83821654
   2.10905031  6.33193435 13.83446740
   0.00000000  2.11024616  7.50000000
   2.11024616  4.22049233  7.50000000
   0.00000000  4.22049233  9.61024616
   2.11024616  2.11024616  9.61024616
   0.00000000  2.11075880 11.73368172
   2.11344006  4.22049233 11.73658877
   0.00000000  4.22049233 13.83544293
   2.10905031  2.10905031 13.83446740
   4.22049233  6.33073849  7.50000000
   6.33073849  0.00000000  7.50000000
   4.22049233  0.00000000  9.61024616
   6.33073849  6.33073849  9.61024616
   4.22049233  6.32754460 11.73658877
   6.33022585  0.00000000 11.73368172
   4.22049233  0.00000000 13.83544293
   6.33193435  6.33193435 13.83446740
   4.22049233  2.11024616  7.50000000
   6.33073849  4.22049233  7.50000000
   4.22049233  4.22049233  9.61024616
   6.33073849  2.11024616  9.61024616
   4.22049233  2.11344006 11.73658877
   6.32754460  4.22049233 11.73658877
   4.22049233  4.22049233 13.87814023
   6.33193435  2.10905031 13.83446740
   0.00000000  6.33073849  9.61024616
   2.11024616  0.00000000  9.61024616
   0.00000000  0.00000000  7.50000000
   2.11024616  6.33073849  7.50000000
   0.00000000  6.33258312 13.88586825
   2.10840153  0.00000000 13.88586825
   0.00000000  0.00000000 11.72785099
   2.10978841  6.33119624 11.72890095
   0.00000000  2.11024616  9.61024616
   2.11024616  4.22049233  9.61024616
   0.00000000  4.22049233  7.50000000
   2.11024616  2.11024616  7.50000000
   0.00000000  2.10840153 13.88586825
   2.10030867  4.22049233 13.88381232
   0.00000000  4.22049233 11.72684365
   2.10978841  2.10978841 11.72890095
   4.22049233  6.33073849  9.61024616
   6.33073849  0.00000000  9.61024616
   4.22049233  0.00000000  7.50000000
   6.33073849  6.33073849  7.50000000
   4.22049233  6.34067598 13.88381232
   6.33258312  0.00000000 13.88586825
   4.22049233  0.00000000 11.72684365
   6.33119624  6.33119624 11.72890095
   4.22049233  2.11024616  9.61024616
   6.33073849  4.22049233  9.61024616
   4.22049233  4.22049233  7.50000000
   6.33073849  2.11024616  7.50000000
   4.22049233  2.10030867 13.88381232
   6.34067598  4.22049233 13.88381232
   4.22049233  4.22049233 11.73684118
   6.33119624  2.10978841 11.72890095



--------------------------------------------------------------------------------------------------------


 k-point   1 :   0.0000 0.0000 0.0000  plane waves:   50745
 k-point   2 :   0.5000 0.0000 0.0000  plane waves:   50798
 k-point   3 :   0.5000 0.5000 0.0000  plane waves:   50752

 maximum and minimum number of plane-waves per node :     12720    12632

 maximum number of plane-waves:     50798
 maximum index in each direction: 
   IXMAX=   16   IYMAX=   16   IZMAX=   42
   IXMIN=  -17   IYMIN=  -17   IZMIN=  -42


 parallel 3D FFT for wavefunctions:
    minimum data exchange during FFTs selected (reduces bandwidth)
 parallel 3D FFT for charge:
    minimum data exchange during FFTs selected (reduces bandwidth)


 total amount of memory used by VASP MPI-rank0    78528. kBytes
=======================================================================

   base      :      30000. kBytes
   nonl-proj :      29343. kBytes
   fftplans  :       3857. kBytes
   grid      :       5885. kBytes
   one-center:        137. kBytes
   wavefun   :       9306. kBytes

     INWAV:  cpu time      0.0001: real time      0.0001
 Broyden mixing: mesh for mixing (old mesh)
   NGX = 33   NGY = 33   NGZ = 85
  (NGX  =108   NGY  =108   NGZ  =256)
  gives a total of  92565 points

 initial charge density was supplied:
 charge density of overlapping atoms calculated
 number of electron     458.0000000 magnetization 
 keeping initial charge density in first step


--------------------------------------------------------------------------------------------------------


 Maximum index for augmentation-charges          334 (set IRDMAX)


--------------------------------------------------------------------------------------------------------


 First call to EWALD:  gamma=   0.154
 Maximum number of real-space cells 4x 4x 2
 Maximum number of reciprocal cells 2x 2x 5

    FEWALD:  cpu time      0.0070: real time      0.0070


--------------------------------------- Iteration      1(   1)  ---------------------------------------


vdW kernel read from vdw_kernel.bindat
  0.0000  0.2424  0.5071  0.7962  1.1119  1.4567  1.8333  2.2446  2.6937  3.1842
  3.7199  4.3049  4.9438  5.6415  6.4036  7.2358  8.1446  9.1372 10.2212 11.4050
 12.6979 14.1099 15.6519 17.3360 19.1751 21.1837 23.3773 25.7729 28.3892 31.2465
 34.3669 37.7748 41.4965 45.5611 50.0000

    POTLOK:  cpu time      0.9737: real time      0.9791
    SETDIJ:  cpu time      0.1556: real time      0.1556
    TRIAL :  cpu time      5.3434: real time      5.4356
    CORREC:  cpu time      0.0013: real time      0.0013
    --------------------------------------------
      LOOP:  cpu time      6.4757: real time      6.6324

 eigenvalue-minimisations  :  2304
 total energy-change (2. order) : 0.4257777E+04  (-0.3061349E+05)
 number of electron     458.0000000 magnetization 
 augmentation part      458.0000000 magnetization 

 DIPCOR: dipole corrections for dipol
 direction  3 min pos     1,
 dipolmoment           0.000000      0.000000     -0.000285 electrons x Angstroem
 Tr[quadrupol]     -6318.707560

 energy correction for charged system         0.000000 eV
 dipol+quadrupol energy correction           -0.000000 eV
 added-field ion interaction          0.002320 eV  (added to PSCEN)


 Free energy of the ion-electron system (eV)
  ---------------------------------------------------
  alpha Z        PSCENC =       907.96642378
  Ewald energy   TEWEN  =    137053.32929587
  -Hartree energ DENC   =   -173152.41922951
  -exchange      EXHF   =         0.00000000
  -V(xc)+E(xc)   XCENC  =      1784.01623188
  PAW double counting   =     32339.39176546   -36140.44900584
  entropy T*S    EENTRO =        -0.02532300
  eigenvalues    EBANDS =     -6899.96514736
  atomic energy  EATOM  =     48365.93245855
  ---------------------------------------------------
  free energy    TOTEN  =      4257.77746982 eV

  energy without entropy =     4257.80279282  energy(sigma->0) =     4257.79013132


--------------------------------------------------------------------------------------------------------




--------------------------------------- Iteration      1(   2)  ---------------------------------------


    TRIAL :  cpu time      2.2472: real time      2.2477
    CORREC:  cpu time      0.0003: real time      0.0003
    --------------------------------------------
      LOOP:  cpu time      2.2531: real time      2.2622

 eigenvalue-minimisations  :  2304
 total energy-change (2. order) :-0.4282120E+04  (-0.4207414E+04)
 number of electron     458.0000000 magnetization 
 augmentation part      458.0000000 magnetization 

 DIPCOR: dipole corrections for dipol
 direction  3 min pos     1,
 dipolmoment           0.000000      0.000000     -0.000285 electrons x Angstroem
 Tr[quadrupol]     -6318.707560

 energy correction for charged system         0.000000 eV
 dipol+quadrupol energy correction           -0.000000 eV
 added-field ion interaction          0.002320 eV  (added to PSCEN)


 Free energy of the ion-electron system (eV)
  ---------------------------------------------------
  alpha Z        PSCENC =       907.96642378
  Ewald energy   TEWEN  =    137053.32929587
  -Hartree energ DENC   =   -173152.41922951
  -exchange      EXHF   =         0.00000000
  -V(xc)+E(xc)   XCENC  =      1784.01623188
  PAW double counting   =     32339.39176546   -36140.44900584
  entropy T*S    EENTRO =        -0.00000000
  eigenvalues    EBANDS =    -11182.10997530
  atomic energy  EATOM  =     48365.93245855
  ---------------------------------------------------
  free energy    TOTEN  =       -24.34203512 eV

  energy without entropy =      -24.34203512  energy(sigma->0) =      -24.34203512


--------------------------------------------------------------------------------------------------------




--------------------------------------- Iteration      1(   3)  ---------------------------------------


    TRIAL :  cpu time      2.3592: real time      2.3600
    CORREC:  cpu time      0.0004: real time      0.0004
    --------------------------------------------
      LOOP:  cpu time      2.3649: real time      2.3746

 eigenvalue-minimisations  :  2304
 total energy-change (2. order) :-0.3114569E+03  (-0.3094421E+03)
 number of electron     458.0000000 magnetization 
 augmentation part      458.0000000 magnetization 

 DIPCOR: dipole corrections for dipol
 direction  3 min pos     1,
 dipolmoment           0.000000      0.000000     -0.000285 electrons x Angstroem
 Tr[quadrupol]     -6318.707560

 energy correction for charged system         0.000000 eV
 dipol+quadrupol energy correction           -0.000000 eV
 added-field ion interaction          0.002320 eV  (added to PSCEN)


 Free energy of the ion-electron system (eV)
  ---------------------------------------------------
  alpha Z        PSCENC =       907.96642378
  Ewald energy   TEWEN  =    137053.32929587
  -Hartree energ DENC   =   -173152.41922951
  -exchange      EXHF   =         0.00000000
  -V(xc)+E(xc)   XCENC  =      1784.01623188
  PAW double counting   =     32339.39176546   -36140.44900584
  entropy T*S    EENTRO =        -0.00000000
  eigenvalues    EBANDS =    -11493.56691306
  atomic energy  EATOM  =     48365.93245855
  ---------------------------------------------------
  free energy    TOTEN  =      -335.79897288 eV

  energy without entropy =     -335.79897288  energy(sigma->0) =     -335.79897288


--------------------------------------------------------------------------------------------------------




--------------------------------------- Iteration      1(   4)  ---------------------------------------


    TRIAL :  cpu time      2.3645: real time      2.3650
    CORREC:  cpu time      0.0005: real time      0.0005
    --------------------------------------------
      LOOP:  cpu time      2.3696: real time      2.3792

 eigenvalue-minimisations  :  2368
 total energy-change (2. order) :-0.6033330E+01  (-0.6025773E+01)
 number of electron     458.0000000 magnetization 
 augmentation part      458.0000000 magnetization 

 DIPCOR: dipole corrections for dipol
 direction  3 min pos     1,
 dipolmoment           0.000000      0.000000     -0.000285 electrons x Angstroem
 Tr[quadrupol]     -6318.707560

 energy correction for charged system         0.000000 eV
 dipol+quadrupol energy correction           -0.000000 eV
 added-field ion interaction          0.002320 eV  (added to PSCEN)


 Free energy of the ion-electron system (eV)
  ---------------------------------------------------
  alpha Z        PSCENC =       907.96642378
  Ewald energy   TEWEN  =    137053.32929587
  -Hartree energ DENC   =   -173152.41922951
  -exchange      EXHF   =         0.00000000
  -V(xc)+E(xc)   XCENC  =      1784.01623188
  PAW double counting   =     32339.39176546   -36140.44900584
  entropy T*S    EENTRO =        -0.00000000
  eigenvalues    EBANDS =    -11499.60024280
  atomic energy  EATOM  =     48365.93245855
  ---------------------------------------------------
  free energy    TOTEN  =      -341.83230262 eV

  energy without entropy =     -341.83230262  energy(sigma->0) =     -341.83230262


--------------------------------------------------------------------------------------------------------




--------------------------------------- Iteration      1(   5)  ---------------------------------------


    TRIAL :  cpu time      2.1398: real time      2.1402
    CORREC:  cpu time      0.0003: real time      0.0003
    CHARGE:  cpu time      0.0746: real time      0.0753
    --------------------------------------------
      LOOP:  cpu time      2.2200: real time      2.2297

 eigenvalue-minimisations  :  2304
 total energy-change (2. order) :-0.7783198E-01  (-0.7782905E-01)
 number of electron     457.9999364 magnetization 
 augmentation part      159.5839978 magnetization 

 DIPCOR: dipole corrections for dipol
 direction  3 min pos     1,
 dipolmoment           0.000000      0.000000     -0.000285 electrons x Angstroem
 Tr[quadrupol]     -6318.707560

 energy correction for charged system         0.000000 eV
 dipol+quadrupol energy correction           -0.000000 eV
 added-field ion interaction          0.002320 eV  (added to PSCEN)


 Free energy of the ion-electron system (eV)
  ---------------------------------------------------
  alpha Z        PSCENC =       907.96642378
  Ewald energy   TEWEN  =    137053.32929587
  -Hartree energ DENC   =   -173152.41922951
  -exchange      EXHF   =         0.00000000
  -V(xc)+E(xc)   XCENC  =      1784.01623188
  PAW double counting   =     32339.39176546   -36140.44900584
  entropy T*S    EENTRO =        -0.00000000
  eigenvalues    EBANDS =    -11499.67807478
  atomic energy  EATOM  =     48365.93245855
  ---------------------------------------------------
  free energy    TOTEN  =      -341.91013460 eV

  energy without entropy =     -341.91013460  energy(sigma->0) =     -341.91013460


--------------------------------------------------------------------------------------------------------




--------------------------------------- Iteration      1(   6)  ---------------------------------------


    POTLOK:  cpu time      0.3219: real time      0.3219
    SETDIJ:  cpu time      0.2150: real time      0.2153
    TRIAL :  cpu time      0.6964: real time      0.6971
    CORREC:  cpu time      0.8380: real time      0.8385
    CHARGE:  cpu time      0.0549: real time      0.0549
    --------------------------------------------
      LOOP:  cpu time      2.1404: real time      2.1419

 eigenvalue-minimisations  :     0
 total energy-change (2. order) : 0.1773314E+03  (-0.9802610E+02)
 number of electron     457.9999255 magnetization 
 augmentation part      156.7544439 magnetization 

 DIPCOR: dipole corrections for dipol
 direction  3 min pos     1,
 dipolmoment           0.000000      0.000000      0.184570 electrons x Angstroem
 Tr[quadrupol]     -6354.275467

 energy correction for charged system         0.000000 eV
 dipol+quadrupol energy correction           -0.002028 eV
 added-field ion interaction         -1.503059 eV  (added to PSCEN)


 Free energy of the ion-electron system (eV)
  ---------------------------------------------------
  alpha Z        PSCENC =       904.27308270
  Ewald energy   TEWEN  =    137053.32929587
  -Hartree energ DENC   =   -177012.76849088
  -exchange      EXHF   =         0.00000000
  -V(xc)+E(xc)   XCENC  =      1908.22426022
  PAW double counting   =     36943.14623538   -40690.98413032
  entropy T*S    EENTRO =        -0.00000000
  eigenvalues    EBANDS =     -7635.73141700
  atomic energy  EATOM  =     48365.93245855
  ---------------------------------------------------
  free energy    TOTEN  =      -164.57870548 eV

  energy without entropy =     -164.57870548  energy(sigma->0) =     -164.57870548


--------------------------------------------------------------------------------------------------------




--------------------------------------- Iteration      1(   7)  ---------------------------------------


    POTLOK:  cpu time      0.3169: real time      0.3170
    SETDIJ:  cpu time      0.2112: real time      0.2112
    TRIAL :  cpu time      0.6003: real time      0.6003
    CORREC:  cpu time      0.8270: real time      0.8271
    CHARGE:  cpu time      0.0551: real time      0.0551
    --------------------------------------------
      LOOP:  cpu time      2.0159: real time      2.0257

 eigenvalue-minimisations  :     0
 total energy-change (2. order) :-0.9849962E+02  (-0.7060738E+01)
 number of electron     457.9999245 magnetization 
 augmentation part      154.8213282 magnetization 

 DIPCOR: dipole corrections for dipol
 direction  3 min pos     1,
 dipolmoment           0.000000      0.000000      0.167419 electrons x Angstroem
 Tr[quadrupol]     -6360.231771

 energy correction for charged system         0.000000 eV
 dipol+quadrupol energy correction           -0.001669 eV
 added-field ion interaction         -1.363387 eV  (added to PSCEN)


 Free energy of the ion-electron system (eV)
  ---------------------------------------------------
  alpha Z        PSCENC =       906.17016755
  Ewald energy   TEWEN  =    137053.32929587
  -Hartree energ DENC   =   -175150.81168638
  -exchange      EXHF   =         0.00000000
  -V(xc)+E(xc)   XCENC  =      1839.01501022
  PAW double counting   =     35818.63528035   -39640.87168303
  entropy T*S    EENTRO =        -0.00000000
  eigenvalues    EBANDS =     -9454.47716464
  atomic energy  EATOM  =     48365.93245855
  ---------------------------------------------------
  free energy    TOTEN  =      -263.07832151 eV

  energy without entropy =     -263.07832151  energy(sigma->0) =     -263.07832151


--------------------------------------------------------------------------------------------------------




--------------------------------------- Iteration      1(   8)  ---------------------------------------


    POTLOK:  cpu time      0.3177: real time      0.3183
    SETDIJ:  cpu time      0.2139: real time      0.2139
    TRIAL :  cpu time      0.6014: real time      0.6014
    CORREC:  cpu time      0.8258: real time      0.8260
    CHARGE:  cpu time      0.0560: real time      0.0560
    --------------------------------------------
      LOOP:  cpu time      2.0298: real time      2.0309

 eigenvalue-minimisations  :     0
 total energy-change (2. order) :-0.7076540E+01  (-0.4588966E+01)
 number of electron     457.9999227 magnetization 
 augmentation part      154.9453673 magnetization 

 DIPCOR: dipole corrections for dipol
 direction  3 min pos     1,
 dipolmoment           0.000000      0.000000      0.107867 electrons x Angstroem
 Tr[quadrupol]     -6358.446020

 energy correction for charged system         0.000000 eV
 dipol+quadrupol energy correction           -0.000693 eV
 added-field ion interaction         -0.878420 eV  (added to PSCEN)


 Free energy of the ion-electron system (eV)
  ---------------------------------------------------
  alpha Z        PSCENC =       906.74784343
  Ewald energy   TEWEN  =    137053.32929587
  -Hartree energ DENC   =   -175039.74312830
  -exchange      EXHF   =         0.00000000
  -V(xc)+E(xc)   XCENC  =      1828.98301386
  PAW double counting   =     35693.68395156   -39443.98352155
  entropy T*S    EENTRO =        -0.00000000
  eigenvalues    EBANDS =     -9635.10477515
  atomic energy  EATOM  =     48365.93245855
  ---------------------------------------------------
  free energy    TOTEN  =      -270.15486174 eV

  energy without entropy =     -270.15486174  energy(sigma->0) =     -270.15486174


--------------------------------------------------------------------------------------------------------




--------------------------------------- Iteration      1(   9)  ---------------------------------------


    POTLOK:  cpu time      0.3168: real time      0.3171
    SETDIJ:  cpu time      0.2126: real time      0.2126
    TRIAL :  cpu time      0.6023: real time      0.6024
    CORREC:  cpu time      0.8254: real time      0.8255
    CHARGE:  cpu time      0.0537: real time      0.0537
    --------------------------------------------
      LOOP:  cpu time      2.0175: real time      2.0264

 eigenvalue-minimisations  :     0
 total energy-change (2. order) :-0.4484929E+01  (-0.1757574E+01)
 number of electron     457.9999228 magnetization 
 augmentation part      154.9576749 magnetization 

 DIPCOR: dipole corrections for dipol
 direction  3 min pos     1,
 dipolmoment           0.000000      0.000000      0.131548 electrons x Angstroem
 Tr[quadrupol]     -6349.962463

 energy correction for charged system         0.000000 eV
 dipol+quadrupol energy correction           -0.001030 eV
 added-field ion interaction         -1.071271 eV  (added to PSCEN)


 Free energy of the ion-electron system (eV)
  ---------------------------------------------------
  alpha Z        PSCENC =       907.24292018
  Ewald energy   TEWEN  =    137053.32929587
  -Hartree energ DENC   =   -174893.90335416
  -exchange      EXHF   =         0.00000000
  -V(xc)+E(xc)   XCENC  =      1828.33583320
  PAW double counting   =     35604.74859992   -39393.14638445
  entropy T*S    EENTRO =        -0.00000000
  eigenvalues    EBANDS =     -9747.17915938
  atomic energy  EATOM  =     48365.93245855
  ---------------------------------------------------
  free energy    TOTEN  =      -274.63979026 eV

  energy without entropy =     -274.63979026  energy(sigma->0) =     -274.63979026


--------------------------------------------------------------------------------------------------------




--------------------------------------- Iteration      1(  10)  ---------------------------------------


    POTLOK:  cpu time      0.3128: real time      0.3131
    SETDIJ:  cpu time      0.2207: real time      0.2207
    TRIAL :  cpu time      0.6000: real time      0.6001
    CORREC:  cpu time      0.8352: real time      0.8354
    CHARGE:  cpu time      0.0540: real time      0.0540
    --------------------------------------------
      LOOP:  cpu time      2.0374: real time      2.0381

 eigenvalue-minimisations  :     0
 total energy-change (2. order) :-0.1782693E+01  (-0.5985847E+00)
 number of electron     457.9999234 magnetization 
 augmentation part      154.9239275 magnetization 

 DIPCOR: dipole corrections for dipol
 direction  3 min pos     1,
 dipolmoment           0.000000      0.000000      0.153211 electrons x Angstroem
 Tr[quadrupol]     -6349.422470

 energy correction for charged system         0.000000 eV
 dipol+quadrupol energy correction           -0.001397 eV
 added-field ion interaction         -1.247686 eV  (added to PSCEN)


 Free energy of the ion-electron system (eV)
  ---------------------------------------------------
  alpha Z        PSCENC =       906.97705034
  Ewald energy   TEWEN  =    137053.32929587
  -Hartree energ DENC   =   -174703.40846442
  -exchange      EXHF   =         0.00000000
  -V(xc)+E(xc)   XCENC  =      1826.61359686
  PAW double counting   =     35499.83663481   -39295.78245706
  entropy T*S    EENTRO =        -0.00000000
  eigenvalues    EBANDS =     -9929.92059810
  atomic energy  EATOM  =     48365.93245855
  ---------------------------------------------------
  free energy    TOTEN  =      -276.42248314 eV

  energy without entropy =     -276.42248314  energy(sigma->0) =     -276.42248314


--------------------------------------------------------------------------------------------------------




--------------------------------------- Iteration      1(  11)  ---------------------------------------


    POTLOK:  cpu time      0.3126: real time      0.3129
    SETDIJ:  cpu time      0.2161: real time      0.2161
    TRIAL :  cpu time      0.5986: real time      0.5986
    CORREC:  cpu time      0.8274: real time      0.8276
    CHARGE:  cpu time      0.0536: real time      0.0536
    --------------------------------------------
      LOOP:  cpu time      2.0141: real time      2.0237

 eigenvalue-minimisations  :     0
 total energy-change (2. order) :-0.5998193E+00  (-0.2173021E+00)
 number of electron     457.9999239 magnetization 
 augmentation part      155.0298398 magnetization 

 DIPCOR: dipole corrections for dipol
 direction  3 min pos     1,
 dipolmoment           0.000000      0.000000      0.141548 electrons x Angstroem
 Tr[quadrupol]     -6350.437141

 energy correction for charged system         0.000000 eV
 dipol+quadrupol energy correction           -0.001193 eV
 added-field ion interaction         -1.152710 eV  (added to PSCEN)


 Free energy of the ion-electron system (eV)
  ---------------------------------------------------
  alpha Z        PSCENC =       906.75314103
  Ewald energy   TEWEN  =    137053.32929587
  -Hartree energ DENC   =   -174642.69656997
  -exchange      EXHF   =         0.00000000
  -V(xc)+E(xc)   XCENC  =      1825.72632187
  PAW double counting   =     35448.23563132   -39235.87502628
  entropy T*S    EENTRO =        -0.00000000
  eigenvalues    EBANDS =     -9998.42755486
  atomic energy  EATOM  =     48365.93245855
  ---------------------------------------------------
  free energy    TOTEN  =      -277.02230246 eV

  energy without entropy =     -277.02230246  energy(sigma->0) =     -277.02230246


--------------------------------------------------------------------------------------------------------




--------------------------------------- Iteration      1(  12)  ---------------------------------------


    POTLOK:  cpu time      0.3130: real time      0.3133
    SETDIJ:  cpu time      0.2139: real time      0.2139
    TRIAL :  cpu time      0.6008: real time      0.6008
    CORREC:  cpu time      0.8250: real time      0.8252
    CHARGE:  cpu time      0.0545: real time      0.0545
    --------------------------------------------
      LOOP:  cpu time      2.0138: real time      2.0224

 eigenvalue-minimisations  :     0
 total energy-change (2. order) :-0.2172836E+00  (-0.7910808E-01)
 number of electron     457.9999240 magnetization 
 augmentation part      155.1383661 magnetization 

 DIPCOR: dipole corrections for dipol
 direction  3 min pos     1,
 dipolmoment           0.000000      0.000000      0.131581 electrons x Angstroem
 Tr[quadrupol]     -6351.232559

 energy correction for charged system         0.000000 eV
 dipol+quadrupol energy correction           -0.001031 eV
 added-field ion interaction         -1.071542 eV  (added to PSCEN)


 Free energy of the ion-electron system (eV)
  ---------------------------------------------------
  alpha Z        PSCENC =       906.80844924
  Ewald energy   TEWEN  =    137053.32929587
  -Hartree energ DENC   =   -174674.50075444
  -exchange      EXHF   =         0.00000000
  -V(xc)+E(xc)   XCENC  =      1826.09949763
  PAW double counting   =     35440.85759053   -39226.95884866
  entropy T*S    EENTRO =        -0.00000000
  eigenvalues    EBANDS =     -9968.80727481
  atomic energy  EATOM  =     48365.93245855
  ---------------------------------------------------
  free energy    TOTEN  =      -277.23958608 eV

  energy without entropy =     -277.23958608  energy(sigma->0) =     -277.23958608


--------------------------------------------------------------------------------------------------------




--------------------------------------- Iteration      1(  13)  ---------------------------------------


    POTLOK:  cpu time      0.3158: real time      0.3161
    SETDIJ:  cpu time      0.2158: real time      0.2161
    TRIAL :  cpu time      0.6000: real time      0.6002
    CORREC:  cpu time      0.8248: real time      0.8248
    CHARGE:  cpu time      0.0538: real time      0.0538
    --------------------------------------------
      LOOP:  cpu time      2.0156: real time      2.0260

 eigenvalue-minimisations  :     0
 total energy-change (2. order) :-0.7912352E-01  (-0.3751993E-01)
 number of electron     457.9999240 magnetization 
 augmentation part      155.1762632 magnetization 

 DIPCOR: dipole corrections for dipol
 direction  3 min pos     1,
 dipolmoment           0.000000      0.000000      0.128033 electrons x Angstroem
 Tr[quadrupol]     -6351.683482

 energy correction for charged system         0.000000 eV
 dipol+quadrupol energy correction           -0.000976 eV
 added-field ion interaction         -1.042642 eV  (added to PSCEN)


 Free energy of the ion-electron system (eV)
  ---------------------------------------------------
  alpha Z        PSCENC =       906.89403284
  Ewald energy   TEWEN  =    137053.32929587
  -Hartree energ DENC   =   -174707.62813994
  -exchange      EXHF   =         0.00000000
  -V(xc)+E(xc)   XCENC  =      1826.43735829
  PAW double counting   =     35442.46889966   -39231.56229207
  entropy T*S    EENTRO =        -0.00000000
  eigenvalues    EBANDS =     -9933.19032282
  atomic energy  EATOM  =     48365.93245855
  ---------------------------------------------------
  free energy    TOTEN  =      -277.31870961 eV

  energy without entropy =     -277.31870961  energy(sigma->0) =     -277.31870961


--------------------------------------------------------------------------------------------------------




--------------------------------------- Iteration      1(  14)  ---------------------------------------


    POTLOK:  cpu time      0.3127: real time      0.3131
    SETDIJ:  cpu time      0.2183: real time      0.2183
    TRIAL :  cpu time      0.6002: real time      0.6004
    CORREC:  cpu time      0.8239: real time      0.8239
    CHARGE:  cpu time      0.0546: real time      0.0546
    --------------------------------------------
      LOOP:  cpu time      2.0149: real time      2.0251

 eigenvalue-minimisations  :     0
 total energy-change (2. order) :-0.3754882E-01  (-0.1789837E-01)
 number of electron     457.9999240 magnetization 
 augmentation part      155.1594487 magnetization 

 DIPCOR: dipole corrections for dipol
 direction  3 min pos     1,
 dipolmoment           0.000000      0.000000      0.127482 electrons x Angstroem
 Tr[quadrupol]     -6352.025990

 energy correction for charged system         0.000000 eV
 dipol+quadrupol energy correction           -0.000967 eV
 added-field ion interaction         -1.038160 eV  (added to PSCEN)


 Free energy of the ion-electron system (eV)
  ---------------------------------------------------
  alpha Z        PSCENC =       906.92424956
  Ewald energy   TEWEN  =    137053.32929587
  -Hartree energ DENC   =   -174722.49301143
  -exchange      EXHF   =         0.00000000
  -V(xc)+E(xc)   XCENC  =      1826.45077900
  PAW double counting   =     35443.04342188   -39233.81745955
  entropy T*S    EENTRO =        -0.00000000
  eigenvalues    EBANDS =     -9916.72599231
  atomic energy  EATOM  =     48365.93245855
  ---------------------------------------------------
  free energy    TOTEN  =      -277.35625843 eV

  energy without entropy =     -277.35625843  energy(sigma->0) =     -277.35625843


--------------------------------------------------------------------------------------------------------




[...]
    269       6.6055      0.00000
    270       6.6057      0.00000
    271       6.6061      0.00000
    272       6.9070      0.00000
    273       7.1606      0.00000
    274       7.1606      0.00000
    275       7.2771      0.00000
    276       7.5174      0.00000
    277       7.5417      0.00000
    278       7.5417      0.00000
    279       7.5485      0.00000
    280       7.7919      0.00000
    281       7.7947      0.00000
    282       7.7948      0.00000
    283       7.8045      0.00000
    284       7.8101      0.00000
    285       7.8115      0.00000
    286       7.8187      0.00000
    287       7.8187      0.00000
    288       8.0550      0.00000
    289       8.0552      0.00000
    290       8.0626      0.00000
    291       8.2236      0.00000
    292       8.2592      0.00000
    293       8.2884      0.00000
    294       8.2952      0.00000
    295       8.3375      0.00000
    296       8.3393      0.00000
    297       8.3468      0.00000
    298       8.3543      0.00000
    299       8.3631      0.00000
    300       8.6181      0.00000
    301       8.6744      0.00000
    302       8.7347      0.00000
    303       8.7379      0.00000
    304       8.8854      0.00000
    305       9.0363      0.00000
    306       9.1042      0.00000
    307       9.1663      0.00000
    308       9.2407      0.00000
    309       9.2861      0.00000
    310       9.3664      0.00000
    311       9.3819      0.00000
    312       9.5418      0.00000
    313       9.6024      0.00000
    314       9.6325      0.00000
    315       9.6550      0.00000
    316       9.6700      0.00000
    317      10.0370      0.00000
    318      10.0843      0.00000
    319      10.1712      0.00000
    320      10.1802      0.00000


--------------------------------------------------------------------------------------------------------


 soft charge-density along one line, spin component           1
         0         1         2         3         4         5         6         7         8         9
 total charge-density along one line

 pseudopotential strength for first ion, spin component:           1
 10.244  13.623   0.000   0.025   0.000  -0.000  -0.075  -0.000
 13.623  18.115   0.000   0.032   0.000  -0.000  -0.098  -0.000
  0.000   0.000  -4.419  -0.000   0.000   8.675   0.000  -0.000
  0.025   0.032  -0.000  -4.424   0.000   0.000   8.660  -0.000
  0.000   0.000   0.000   0.000  -4.419  -0.000  -0.000   8.675
 -0.000  -0.000   8.675   0.000  -0.000 -19.170  -0.000  -0.000
 -0.075  -0.098   0.000   8.660  -0.000  -0.000 -19.089   0.000
 -0.000  -0.000  -0.000  -0.000   8.675  -0.000   0.000 -19.170
 total augmentation occupancy for first ion, spin component:           1
  7.062  -3.196   0.000   2.055   0.000   0.000   0.369   0.000
 -3.196   1.851   0.000  -1.568   0.000   0.000  -0.221   0.000
  0.000   0.000   0.827  -0.000   0.000   0.057  -0.000   0.000
  2.055  -1.568  -0.000   2.214   0.000   0.000   0.203   0.000
  0.000   0.000   0.000   0.000   0.827   0.000   0.000   0.057
  0.000   0.000   0.057   0.000   0.000   0.004   0.000   0.000
  0.369  -0.221  -0.000   0.203   0.000   0.000   0.028   0.000
  0.000   0.000   0.000   0.000   0.057   0.000   0.000   0.004


------------------------ aborting loop because EDIFF is reached ----------------------------------------


    FORLOC:  cpu time      0.0040: real time      0.0040
    FORNL :  cpu time      0.4209: real time      0.4211
    STRESS:  cpu time      1.3365: real time      1.3369
    FORCOR:  cpu time      0.3146: real time      0.3146
    OFIELD:  cpu time      0.0001: real time      0.0001

  FORCE on cell =-STRESS in cart. coord.  units (eV):
  Direction    XX          YY          ZZ          XY          YZ          ZX
  --------------------------------------------------------------------------------------
  Alpha Z   907.96410   907.96410   907.96410
  Ewald  157554.75551157554.75551************     0.00000     0.00000    -0.00000
  Hartree167929.22442167929.22442************    -0.00000    -0.00000    -0.00000
  E(xc)   -2499.91342 -2499.91342 -2498.93457     0.00000    -0.00000     0.00000
  Local  ************************335078.04709    -0.00000    -0.00000    -0.00000
  n-local -2850.64661 -2851.46758 -2881.02833    -0.00000     0.00000     0.00000
  augment  1058.08200  1058.08200  1048.02770    -0.00000     0.00000    -0.00000
  Kinetic  7494.53050  7497.11691  7515.58975     0.00000    -0.00000    -0.00000
  Fock        0.00000     0.00000     0.00000     0.00000     0.00000     0.00000
  -------------------------------------------------------------------------------------
  Total     -30.07057   -30.07057    -5.03200     0.00000     0.00000    -0.00000
  in kB     -31.70007   -31.70007    -5.30468     0.00000     0.00000    -0.00000
  external pressure =      -22.90 kB  Pullay stress =        0.00 kB


 VOLUME and BASIS-vectors are now :
 -----------------------------------------------------------------------------
  energy-cutoff  :      600.00
  volume of cell :     1519.82
      direct lattice vectors                 reciprocal lattice vectors
     8.440984654  0.000000000  0.000000000     0.118469591  0.000000000  0.000000000
     0.000000000  8.440984654  0.000000000     0.000000000  0.118469591  0.000000000
     0.000000000  0.000000000 21.330738491     0.000000000  0.000000000  0.046880702

  length of vectors
     8.440984654  8.440984654 21.330738491     0.118469591  0.118469591  0.046880702


 FORCES acting on ions:
    Electron-Ion                     Ewald-Force                    Non-Local-Force
 -----------------------------------------------------------------------------------------------
   0.114E-12 0.256E-12 -.828E+03   -.111E-13 -.222E-14 0.802E+03   0.000E+00 0.265E-22 0.270E+02
   0.453E-12 0.119E-11 -.143E+04   -.577E-14 0.200E-14 0.149E+04   0.132E-22 -.265E-22 -.603E+02
   -.169E-13 -.125E+00 0.208E+04   0.560E-13 0.125E+00 -.207E+04   -.199E-22 -.156E-03 -.679E+01
   0.125E+00 -.148E-12 0.208E+04   -.125E+00 0.671E-13 -.207E+04   0.156E-03 0.265E-22 -.679E+01
   -.360E-13 0.310E-12 0.713E+03   -.150E-10 0.150E-10 -.713E+03   0.265E-22 0.000E+00 0.474E+00
   0.446E+00 -.446E+00 0.714E+03   -.442E+00 0.442E+00 -.714E+03   -.257E-02 0.257E-02 0.497E+00
   -.330E-13 -.277E+01 -.643E+03   0.157E-11 0.275E+01 0.643E+03   -.331E-22 0.180E-01 -.125E+00
   0.277E+01 -.337E-12 -.643E+03   -.275E+01 -.151E-11 0.643E+03   -.180E-01 -.265E-22 -.125E+00
   -.307E-13 0.135E-12 -.200E+04   0.444E-12 -.416E-12 0.200E+04   0.000E+00 -.662E-23 0.571E+01
   0.176E+02 -.176E+02 -.198E+04   -.177E+02 0.177E+02 0.198E+04   0.776E-01 -.776E-01 0.579E+01
   -.205E-13 0.125E+00 0.208E+04   -.277E-12 -.125E+00 -.207E+04   -.265E-22 0.156E-03 -.679E+01
   0.119E+00 0.687E-12 0.208E+04   -.116E+00 0.131E-10 -.207E+04   -.184E-02 -.106E-21 -.679E+01
   -.459E-13 0.134E-11 0.714E+03   -.165E-10 0.000E+00 -.714E+03   0.265E-22 0.000E+00 0.434E+00
   0.446E+00 0.446E+00 0.714E+03   -.442E+00 -.442E+00 -.714E+03   -.257E-02 -.257E-02 0.497E+00
   -.448E-13 0.277E+01 -.643E+03   0.304E-11 -.275E+01 0.643E+03   -.331E-22 -.180E-01 -.125E+00
   0.394E+01 0.106E-11 -.636E+03   -.387E+01 0.178E-14 0.636E+03   -.756E-01 0.265E-22 -.241E+00
   -.488E-13 0.102E-11 -.199E+04   -.355E-13 -.995E-13 0.198E+04   0.662E-23 -.265E-22 0.571E+01
   0.176E+02 0.176E+02 -.198E+04   -.177E+02 -.177E+02 0.198E+04   0.776E-01 0.776E-01 0.579E+01
   0.874E-12 -.119E+00 0.208E+04   -.129E-10 0.116E+00 -.207E+04   -.529E-22 0.184E-02 -.679E+01
   -.125E+00 -.155E-12 0.208E+04   0.125E+00 0.471E-13 -.207E+04   -.156E-03 0.000E+00 -.679E+01
   0.808E-12 -.256E-12 0.714E+03   0.145E-11 0.150E-10 -.714E+03   0.000E+00 0.000E+00 0.434E+00
   -.446E+00 -.446E+00 0.714E+03   0.442E+00 0.442E+00 -.714E+03   0.257E-02 0.257E-02 0.497E+00
   0.805E-12 -.394E+01 -.636E+03   -.141E-11 0.387E+01 0.636E+03   0.000E+00 0.756E-01 -.241E+00
   -.277E+01 -.303E-12 -.643E+03   0.275E+01 -.156E-11 0.643E+03   0.180E-01 0.529E-22 -.125E+00
   0.904E-12 -.303E-12 -.199E+04   0.782E-13 -.355E-14 0.198E+04   0.000E+00 0.000E+00 0.571E+01
   -.176E+02 -.176E+02 -.198E+04   0.177E+02 0.177E+02 0.198E+04   -.776E-01 -.776E-01 0.579E+01
   0.885E-12 0.119E+00 0.208E+04   -.131E-10 -.116E+00 -.207E+04   0.794E-22 -.184E-02 -.679E+01
   -.119E+00 0.141E-12 0.208E+04   0.116E+00 0.131E-10 -.207E+04   0.184E-02 -.529E-22 -.679E+01
   0.854E-12 0.256E-11 0.714E+03   -.782E-13 0.355E-14 -.715E+03   0.265E-22 0.000E+00 0.566E+00
   -.446E+00 0.446E+00 0.714E+03   0.442E+00 -.442E+00 -.714E+03   0.257E-02 -.257E-02 0.497E+00
   0.804E-12 0.394E+01 -.636E+03   -.284E-13 -.387E+01 0.636E+03   0.000E+00 -.756E-01 -.241E+00
   -.394E+01 -.177E-11 -.636E+03   0.387E+01 0.000E+00 0.636E+03   0.756E-01 0.000E+00 -.241E+00
   0.872E-12 0.522E-12 -.192E+04   -.426E-13 -.391E-13 0.191E+04   0.000E+00 0.000E+00 0.401E+01
   -.176E+02 0.176E+02 -.198E+04   0.177E+02 -.177E+02 0.198E+04   -.776E-01 0.776E-01 0.579E+01
   -.376E-13 -.390E+00 0.535E+03   0.409E-13 0.385E+00 -.534E+03   0.000E+00 0.775E-02 -.850E-01
   0.390E+00 0.108E-12 0.535E+03   -.385E+00 0.391E-13 -.534E+03   -.775E-02 -.265E-22 -.850E-01
   -.411E-13 -.303E-12 0.156E+04   0.853E-11 -.844E-11 -.156E+04   0.000E+00 0.000E+00 0.360E+01
   0.906E-01 -.906E-01 0.156E+04   -.898E-01 0.898E-01 -.156E+04   -.109E-02 0.109E-02 0.360E+01
   -.436E-13 -.719E+01 -.152E+04   -.871E-12 0.713E+01 0.153E+04   0.662E-22 0.572E-01 -.514E+01
   0.719E+01 0.808E-13 -.152E+04   -.713E+01 0.881E-12 0.153E+04   -.572E-01 0.397E-22 -.514E+01
   -.505E-13 0.621E-12 -.478E+03   -.853E-13 0.639E-13 0.478E+03   0.000E+00 0.331E-23 0.258E+00
   0.248E+01 -.248E+01 -.473E+03   -.247E+01 0.247E+01 0.473E+03   -.917E-02 0.917E-02 0.322E+00
   -.467E-13 0.390E+00 0.535E+03   0.142E-13 -.385E+00 -.534E+03   0.132E-22 -.775E-02 -.850E-01
   0.355E+00 0.768E-12 0.535E+03   -.382E+00 -.764E-11 -.535E+03   0.359E-01 -.993E-23 -.106E+00
   -.441E-13 0.222E-12 0.156E+04   0.845E-11 -.796E-12 -.156E+04   0.662E-23 0.000E+00 0.360E+01
   0.906E-01 0.906E-01 0.156E+04   -.898E-01 -.898E-01 -.156E+04   -.109E-02 -.109E-02 0.360E+01
   -.564E-13 0.719E+01 -.152E+04   -.774E-12 -.713E+01 0.153E+04   -.199E-22 -.572E-01 -.514E+01
   0.227E+02 0.124E-11 -.149E+04   -.224E+02 0.810E-11 0.150E+04   -.304E+00 0.529E-22 -.512E+01
   -.364E-13 0.522E-12 -.474E+03   -.741E-11 0.711E-14 0.473E+03   0.132E-22 0.000E+00 0.274E+00
   0.248E+01 0.248E+01 -.473E+03   -.247E+01 -.247E+01 0.473E+03   -.917E-02 -.917E-02 0.322E+00
   0.305E-12 -.355E+00 0.535E+03   0.764E-11 0.382E+00 -.535E+03   0.132E-22 -.359E-01 -.106E+00
   -.390E+00 0.116E-12 0.535E+03   0.385E+00 0.142E-13 -.534E+03   0.775E-02 0.265E-22 -.850E-01
   0.344E-12 -.471E-13 0.156E+04   0.845E-12 -.846E-11 -.156E+04   0.265E-22 0.000E+00 0.360E+01
   -.906E-01 -.906E-01 0.156E+04   0.898E-01 0.898E-01 -.156E+04   0.109E-02 0.109E-02 0.360E+01
   0.360E-12 -.227E+02 -.149E+04   -.816E-11 0.224E+02 0.150E+04   -.794E-22 0.304E+00 -.512E+01
   -.719E+01 0.175E-12 -.152E+04   0.713E+01 0.924E-12 0.153E+04   0.572E-01 0.000E+00 -.514E+01
   0.310E-12 -.354E-12 -.474E+03   -.711E-14 0.738E-11 0.473E+03   -.662E-23 0.000E+00 0.274E+00
   -.248E+01 -.248E+01 -.473E+03   0.247E+01 0.247E+01 0.473E+03   0.917E-02 0.917E-02 0.322E+00
   0.317E-12 0.355E+00 0.535E+03   0.763E-11 -.382E+00 -.535E+03   0.000E+00 0.359E-01 -.106E+00
   -.355E+00 0.170E-11 0.535E+03   0.382E+00 -.769E-11 -.535E+03   -.359E-01 0.000E+00 -.106E+00
   0.330E-12 0.781E-12 0.156E+04   0.824E-12 -.838E-12 -.156E+04   0.132E-22 0.000E+00 0.360E+01
   -.906E-01 0.906E-01 0.156E+04   0.898E-01 -.898E-01 -.156E+04   0.109E-02 -.109E-02 0.360E+01
   0.376E-12 0.227E+02 -.149E+04   -.820E-11 -.224E+02 0.150E+04   0.106E-21 -.304E+00 -.512E+01
   -.227E+02 -.137E-11 -.149E+04   0.224E+02 0.819E-11 0.150E+04   0.304E+00 0.106E-21 -.512E+01
   0.294E-12 0.323E-12 -.474E+03   -.497E-13 0.426E-13 0.474E+03   0.000E+00 0.000E+00 -.198E+00
   -.248E+01 0.248E+01 -.473E+03   0.247E+01 -.247E+01 0.473E+03   0.917E-02 -.917E-02 0.322E+00
 -----------------------------------------------------------------------------------------------
   0.262E-10 0.180E-10 0.519E+02   0.209E-12 -.100E-12 0.796E-12   0.382E-16 0.434E-16 -.519E+02


 POSITION                                       TOTAL-FORCE (eV/Angst)
 -----------------------------------------------------------------------------------
      4.22049      4.22049     16.35814        -0.000000      0.000000      0.496570
      4.22049      4.22049     17.50496        -0.000000      0.000000     -0.579858
      0.00000      6.33074      7.50000        -0.000000      0.000062      0.320754
      2.11025      0.00000      7.50000        -0.000062      0.000000      0.320754
      0.00000      0.00000      9.61025        -0.000000      0.000000      0.039180
      2.11025      6.33074      9.61025         0.001610     -0.001610      0.041399
      0.00000      6.33023     11.73368        -0.000000     -0.000591      0.023343
      2.11076      0.00000     11.73368         0.000591      0.000000      0.023343
      0.00000      0.00000     13.83822        -0.000000      0.000000      0.025033
      2.10905      6.33193     13.83447        -0.007767      0.007767      0.016904
      0.00000      2.11025      7.50000        -0.000000     -0.000062      0.320754
      2.11025      4.22049      7.50000         0.000405      0.000000      0.320846
      0.00000      4.22049      9.61025        -0.000000      0.000000      0.048795
      2.11025      2.11025      9.61025         0.001610      0.001610      0.041399
      0.00000      2.11076     11.73368        -0.000000      0.000591      0.023343
      2.11344      4.22049     11.73659        -0.005891      0.000000      0.028757
      0.00000      4.22049     13.83544        -0.000000      0.000000      0.020683
      2.10905      2.10905     13.83447        -0.007767     -0.007767      0.016904
      4.22049      6.33074      7.50000        -0.000000     -0.000405      0.320846
      6.33074      0.00000      7.50000         0.000062      0.000000      0.320754
      4.22049      0.00000      9.61025        -0.000000      0.000000      0.048795
      6.33074      6.33074      9.61025        -0.001610     -0.001610      0.041399
      4.22049      6.32754     11.73659        -0.000000      0.005891      0.028757
      6.33023      0.00000     11.73368        -0.000591      0.000000      0.023343
      4.22049      0.00000     13.83544        -0.000000      0.000000      0.020683
      6.33193      6.33193     13.83447         0.007767      0.007767      0.016904
      4.22049      2.11025      7.50000        -0.000000      0.000405      0.320846
      6.33074      4.22049      7.50000        -0.000405      0.000000      0.320846
      4.22049      4.22049      9.61025        -0.000000      0.000000      0.049973
      6.33074      2.11025      9.61025        -0.001610      0.001610      0.041399
      4.22049      2.11344     11.73659        -0.000000     -0.005891      0.028757
      6.32754      4.22049     11.73659         0.005891      0.000000      0.028757
      4.22049      4.22049     13.87814        -0.000000      0.000000      0.155726
      6.33193      2.10905     13.83447         0.007767     -0.007767      0.016904
      0.00000      6.33074      9.61025        -0.000000      0.002244      0.065001
      2.11025      0.00000      9.61025        -0.002244      0.000000      0.065001
      0.00000      0.00000      7.50000        -0.000000      0.000000     -0.402172
      2.11025      6.33074      7.50000        -0.000314      0.000314     -0.401936
      0.00000      6.33258     13.88587        -0.000000     -0.001525     -0.097278
      2.10840      0.00000     13.88587         0.001525      0.000000     -0.097278
      0.00000      0.00000     11.72785        -0.000000      0.000000      0.016540
      2.10979      6.33120     11.72890         0.002780     -0.002780      0.009936
      0.00000      2.11025      9.61025        -0.000000     -0.002244      0.065001
      2.11025      4.22049      9.61025         0.009301      0.000000      0.073445
      0.00000      4.22049      7.50000        -0.000000      0.000000     -0.402061
      2.11025      2.11025      7.50000        -0.000314     -0.000314     -0.401936
      0.00000      2.10840     13.88587        -0.000000      0.001525     -0.097278
      2.10031      4.22049     13.88381         0.004614      0.000000     -0.091952
      0.00000      4.22049     11.72684        -0.000000      0.000000      0.012527
      2.10979      2.10979     11.72890         0.002780      0.002780      0.009936
      4.22049      6.33074      9.61025        -0.000000     -0.009301      0.073445
      6.33074      0.00000      9.61025         0.002244      0.000000      0.065001
      4.22049      0.00000      7.50000        -0.000000      0.000000     -0.402061
      6.33074      6.33074      7.50000         0.000314      0.000314     -0.401936
      4.22049      6.34068     13.88381        -0.000000     -0.004614     -0.091952
      6.33258      0.00000     13.88587        -0.001525      0.000000     -0.097278
      4.22049      0.00000     11.72684        -0.000000      0.000000      0.012527
      6.33120      6.33120     11.72890        -0.002780     -0.002780      0.009936
      4.22049      2.11025      9.61025        -0.000000      0.009301      0.073445
      6.33074      4.22049      9.61025        -0.009301      0.000000      0.073445
      4.22049      4.22049      7.50000        -0.000000      0.000000     -0.402674
      6.33074      2.11025      7.50000         0.000314     -0.000314     -0.401936
      4.22049      2.10031     13.88381        -0.000000      0.004614     -0.091952
      6.34068      4.22049     13.88381        -0.004614      0.000000     -0.091952
      4.22049      4.22049     11.73684        -0.000000      0.000000      0.004912
      6.33120      2.10979     11.72890        -0.002780      0.002780      0.009936
 -----------------------------------------------------------------------------------
    total drift:                                0.000000      0.000000      0.000384


--------------------------------------------------------------------------------------------------------



  FREE ENERGIE OF THE ION-ELECTRON SYSTEM (eV)
  ---------------------------------------------------
  free  energy   TOTEN  =      -277.38634052 eV

  energy  without entropy=     -277.38634052  energy(sigma->0) =     -277.38634052



--------------------------------------------------------------------------------------------------------


    POTLOK:  cpu time      0.5402: real time      0.5406


--------------------------------------------------------------------------------------------------------


     LOOP+:  cpu time     61.3288: real time     61.7091
    4ORBIT:  cpu time      0.0000: real time      0.0000

 total amount of memory used by VASP MPI-rank0    78528. kBytes
=======================================================================

   base      :      30000. kBytes
   nonl-proj :      29343. kBytes
   fftplans  :       3857. kBytes
   grid      :       5885. kBytes
   one-center:        137. kBytes
   wavefun   :       9306. kBytes

  
  
 General timing and accounting informations for this job:
 ========================================================
  
                  Total CPU time used (sec):       79.280
                            User time (sec):       77.303
                          System time (sec):        1.976
                         Elapsed time (sec):       84.461
  
                   Maximum memory used (kb):      271044.
                   Average memory used (kb):          N/A
  
                          Minor page faults:        31859
                          Major page faults:           50
                 Voluntary context switches:         7206
