 vasp.6.3.0 20Jan22 (build Apr  1 2022 16:44:48) complex                         
 executed on        HPECrayEX_GCC date 2023.05.17  21:47:36
 running  512 mpi-ranks, with    1 threads/rank
 distrk:  each k-point on  256 cores,    2 groups
 distr:  one band on NCORE=   4 cores,   64 groups


--------------------------------------------------------------------------------------------------------


 INCAR:
   SYSTEM = MgO-rocksalt
   ISMEAR = 0
   SIGMA = 0.05
   EDIFF = 1E-6
   ALGO = ALL
   ISTART = 0
   IBRION = -1
   NSW = 0
   ISYM = 2
   ISIF = 2
   EDIFFG = -0.01
   DIPOL = 0.5 0.5 0.5
   IDIPOL = 3
   LDIPOL = .TRUE.
   GGA = RE
   LUSE_VDW = .TRUE.
   AGGAC = 0.0
   ENCUT = 600
   PREC = Normal
   LASPH = .TRUE.
   LREAL = .FALSE.
   ISPIN = 1
   NELM = 200
   NELMIN = 8
   NCORE = 4
   KPAR = 2
   LWAVE = .FALSE.
   LCHARG = .FALSE.

 POTCAR:    PAW_PBE C 08Apr2002                   
 POTCAR:    PAW_PBE O 08Apr2002                   
 POTCAR:    PAW_PBE Mg_pv 13Apr2007               
 POTCAR:    PAW_PBE O 08Apr2002                   
 -----------------------------------------------------------------------------
|                                                                             |
|               ----> ADVICE to this user running VASP <----                  |
|                                                                             |
|     You have switched on vdW-DFT.                                           |
|     This routine was written and supplied by Jiri Klimes. We recommend      |
|     that you carefully read and cite the following publications:            |
|       J. Klimes, D.R. Bowler, A. Michelides                                 |
|          J. Phys.: Cond Matt. 22 022201 (2010)                              |
|       J. Klimes, D.R. Bowler, A. Michelides                                 |
|          Phys. Rev. B. 83, 195131 (2011)                                    |
|     and references therein.                                                 |
|                                                                             |
 -----------------------------------------------------------------------------

 POTCAR:    PAW_PBE C 08Apr2002                   
   SHA256 =  253f7b50bb8d59471dbedb8285d89021f4a42ed1a2c5d38a03a736e69125dd95 C/POTCAR              
   COPYR  = (c) Copyright 08Apr2002 Georg Kresse                                                    
   COPYR  = This file is part of the software VASP. Any use, copying, and all other rights are regul
   COPYR  = If you do not have a valid VASP license, you may not use, copy or distribute this file. 
   VRHFIN =C: s2p2                                                                                  
   LEXCH  = PE                                                                                      
   EATOM  =   147.1560 eV,   10.8157 Ry                                                             
                                                                                                    
   TITEL  = PAW_PBE C 08Apr2002                                                                     
   LULTRA =        F    use ultrasoft PP ?                                                          
   IUNSCR =        1    unscreen: 0-lin 1-nonlin 2-no                                               
   RPACOR =    1.200    partial core radius                                                         
   POMASS =   12.011; ZVAL   =    4.000    mass and valenz                                          
   RCORE  =    1.500    outmost cutoff radius                                                       
   RWIGS  =    1.630; RWIGS  =    0.863    wigner-seitz radius (au A)                               
   ENMAX  =  400.000; ENMIN  =  300.000 eV                                                          
   ICORE  =        2    local potential                                                             
   LCOR   =        T    correct aug charges                                                         
   LPAW   =        T    paw PP                                                                      
   EAUG   =  644.873                                                                                
   DEXC   =    0.000                                                                                
   RMAX   =    1.529    core radius for proj-oper                                                   
   RAUG   =    1.300    factor for augmentation sphere                                              
   RDEP   =    1.501    radius for radial grids                                                     
   RDEPT  =    1.300    core radius for aug-charge                                                  
                                                                                                    
   Atomic configuration                                                                             
    4 entries                                                                                       
     n  l   j            E        occ.                                                              
     1  0  0.50      -273.3789   2.0000                                                             
     2  0  0.50       -13.7508   2.0000                                                             
     2  1  0.50        -5.2854   2.0000                                                             
     3  2  1.50        -5.4423   0.0000                                                             
   Description                                                                                      
     l       E           TYP  RCUT    TYP  RCUT                                                     
     0    -13.7508458     23  1.200                                                                 
     0     -8.2022199     23  1.200                                                                 
     1     -5.2854383     23  1.500                                                                 
     1     34.0145650     23  1.500                                                                 
     2     -5.4423304      7  1.500                                                                 
  local pseudopotential read in
  partial core-charges read in
  partial kinetic energy density read in
  atomic valenz-charges read in
  non local Contribution for L=           0  read in
    real space projection operators read in
  non local Contribution for L=           0  read in
    real space projection operators read in
  non local Contribution for L=           1  read in
    real space projection operators read in
  non local Contribution for L=           1  read in
    real space projection operators read in
    PAW grid and wavefunctions read in

   number of l-projection  operators is LMAX  =           4
   number of lm-projection operators is LMMAX =           8

 POTCAR:    PAW_PBE O 08Apr2002                   
   SHA256 =  818f92134a0a090dccd8ba1447fa70422a3b330e708bb4f08108d8ae51209ddf O/POTCAR              
   COPYR  = (c) Copyright 08Apr2002 Georg Kresse                                                    
   COPYR  = This file is part of the software VASP. Any use, copying, and all other rights are regul
   COPYR  = If you do not have a valid VASP license, you may not use, copy or distribute this file. 
   VRHFIN =O: s2p4                                                                                  
   LEXCH  = PE                                                                                      
   EATOM  =   432.3788 eV,   31.7789 Ry                                                             
                                                                                                    
   TITEL  = PAW_PBE O 08Apr2002                                                                     
   LULTRA =        F    use ultrasoft PP ?                                                          
   IUNSCR =        1    unscreen: 0-lin 1-nonlin 2-no                                               
   RPACOR =    1.200    partial core radius                                                         
   POMASS =   16.000; ZVAL   =    6.000    mass and valenz                                          
   RCORE  =    1.520    outmost cutoff radius                                                       
   RWIGS  =    1.550; RWIGS  =    0.820    wigner-seitz radius (au A)                               
   ENMAX  =  400.000; ENMIN  =  300.000 eV                                                          
   ICORE  =        2    local potential                                                             
   LCOR   =        T    correct aug charges                                                         
   LPAW   =        T    paw PP                                                                      
   EAUG   =  605.392                                                                                
   DEXC   =    0.000                                                                                
   RMAX   =    1.553    core radius for proj-oper                                                   
   RAUG   =    1.300    factor for augmentation sphere                                              
   RDEP   =    1.550    radius for radial grids                                                     
   RDEPT  =    1.329    core radius for aug-charge                                                  
                                                                                                    
   Atomic configuration                                                                             
    4 entries                                                                                       
     n  l   j            E        occ.                                                              
     1  0  0.50      -514.6923   2.0000                                                             
     2  0  0.50       -23.9615   2.0000                                                             
     2  1  0.50        -9.0305   4.0000                                                             
     3  2  1.50        -9.5241   0.0000                                                             
   Description                                                                                      
     l       E           TYP  RCUT    TYP  RCUT                                                     
     0    -23.9615318     23  1.200                                                                 
     0     -9.5240782     23  1.200                                                                 
     1     -9.0304911     23  1.520                                                                 
     1      8.1634956     23  1.520                                                                 
     2     -9.5240782      7  1.500                                                                 
  local pseudopotential read in
  partial core-charges read in
  partial kinetic energy density read in
  kinetic energy density of atom read in
  atomic valenz-charges read in
  non local Contribution for L=           0  read in
    real space projection operators read in
  non local Contribution for L=           0  read in
    real space projection operators read in
  non local Contribution for L=           1  read in
    real space projection operators read in
  non local Contribution for L=           1  read in
    real space projection operators read in
    PAW grid and wavefunctions read in

   number of l-projection  operators is LMAX  =           4
   number of lm-projection operators is LMMAX =           8

 POTCAR:    PAW_PBE Mg_pv 13Apr2007               
   SHA256 =  f474ac0dd33840b9ae76c01d57fea79fdf77cdfbb07d5ade72c65f83c709b62b Mg_pv/POTCAR          
   COPYR  = (c) Copyright 13Apr2007 Georg Kresse                                                    
   COPYR  = This file is part of the software VASP. Any use, copying, and all other rights are regul
   COPYR  = If you do not have a valid VASP license, you may not use, copy or distribute this file. 
   VRHFIN =Mg: p6s2                                                                                 
   LEXCH  = PE                                                                                      
   EATOM  =  1056.7344 eV,   77.6678 Ry                                                             
                                                                                                    
   TITEL  = PAW_PBE Mg_pv 13Apr2007                                                                 
   LULTRA =        F    use ultrasoft PP ?                                                          
   IUNSCR =        1    unscreen: 0-lin 1-nonlin 2-no                                               
   RPACOR =    1.500    partial core radius                                                         
   POMASS =   24.305; ZVAL   =    8.000    mass and valenz                                          
   RCORE  =    2.000    outmost cutoff radius                                                       
   RWIGS  =    2.000; RWIGS  =    1.058    wigner-seitz radius (au A)                               
   ENMAX  =  403.929; ENMIN  =  302.947 eV                                                          
   RCLOC  =    1.506    cutoff for local pot                                                        
   LCOR   =        T    correct aug charges                                                         
   LPAW   =        T    paw PP                                                                      
   EAUG   =  758.780                                                                                
   DEXC   =    0.000                                                                                
   RMAX   =    2.045    core radius for proj-oper                                                   
   RAUG   =    1.300    factor for augmentation sphere                                              
   RDEP   =    2.025    radius for radial grids                                                     
   RDEPT  =    1.557    core radius for aug-charge                                                  
                                                                                                    
   Atomic configuration                                                                             
    5 entries                                                                                       
     n  l   j            E        occ.                                                              
     1  0  0.50     -1259.6230   2.0000                                                             
     2  0  0.50       -79.8442   2.0000                                                             
     2  1  1.50       -46.6121   6.0000                                                             
     3  0  0.50        -4.7055   2.0000                                                             
     3  2  1.50        -1.3606   0.0000                                                             
   Description                                                                                      
     l       E           TYP  RCUT    TYP  RCUT                                                     
     1    -46.6121073     23  1.600                                                                 
     1      2.7211652     23  1.600                                                                 
     0     -4.7054661     23  2.000                                                                 
     0     61.2262170     23  2.000                                                                 
     2     -1.3605826     23  2.000                                                                 
  local pseudopotential read in
  partial core-charges read in
  partial kinetic energy density read in
  atomic valenz-charges read in
  non local Contribution for L=           1  read in
    real space projection operators read in
  non local Contribution for L=           1  read in
    real space projection operators read in
  non local Contribution for L=           0  read in
    real space projection operators read in
  non local Contribution for L=           0  read in
    real space projection operators read in
  non local Contribution for L=           2  read in
    real space projection operators read in
    PAW grid and wavefunctions read in

   number of l-projection  operators is LMAX  =           5
   number of lm-projection operators is LMMAX =          13

 POTCAR:    PAW_PBE O 08Apr2002                   
   SHA256 =  818f92134a0a090dccd8ba1447fa70422a3b330e708bb4f08108d8ae51209ddf O/POTCAR              
   COPYR  = (c) Copyright 08Apr2002 Georg Kresse                                                    
   COPYR  = This file is part of the software VASP. Any use, copying, and all other rights are regul
   COPYR  = If you do not have a valid VASP license, you may not use, copy or distribute this file. 
   VRHFIN =O: s2p4                                                                                  
   LEXCH  = PE                                                                                      
   EATOM  =   432.3788 eV,   31.7789 Ry                                                             
                                                                                                    
   TITEL  = PAW_PBE O 08Apr2002                                                                     
   LULTRA =        F    use ultrasoft PP ?                                                          
   IUNSCR =        1    unscreen: 0-lin 1-nonlin 2-no                                               
   RPACOR =    1.200    partial core radius                                                         
   POMASS =   16.000; ZVAL   =    6.000    mass and valenz                                          
   RCORE  =    1.520    outmost cutoff radius                                                       
   RWIGS  =    1.550; RWIGS  =    0.820    wigner-seitz radius (au A)                               
   ENMAX  =  400.000; ENMIN  =  300.000 eV                                                          
   ICORE  =        2    local potential                                                             
   LCOR   =        T    correct aug charges                                                         
   LPAW   =        T    paw PP                                                                      
   EAUG   =  605.392                                                                                
   DEXC   =    0.000                                                                                
   RMAX   =    1.553    core radius for proj-oper                                                   
   RAUG   =    1.300    factor for augmentation sphere                                              
   RDEP   =    1.550    radius for radial grids                                                     
   RDEPT  =    1.329    core radius for aug-charge                                                  
                                                                                                    
   Atomic configuration                                                                             
    4 entries                                                                                       
     n  l   j            E        occ.                                                              
     1  0  0.50      -514.6923   2.0000                                                             
     2  0  0.50       -23.9615   2.0000                                                             
     2  1  0.50        -9.0305   4.0000                                                             
     3  2  1.50        -9.5241   0.0000                                                             
   Description                                                                                      
     l       E           TYP  RCUT    TYP  RCUT                                                     
     0    -23.9615318     23  1.200                                                                 
     0     -9.5240782     23  1.200                                                                 
     1     -9.0304911     23  1.520                                                                 
     1      8.1634956     23  1.520                                                                 
     2     -9.5240782      7  1.500                                                                 
  local pseudopotential read in
  partial core-charges read in
  partial kinetic energy density read in
  kinetic energy density of atom read in
  atomic valenz-charges read in
  non local Contribution for L=           0  read in
    real space projection operators read in
  non local Contribution for L=           0  read in
    real space projection operators read in
  non local Contribution for L=           1  read in
    real space projection operators read in
  non local Contribution for L=           1  read in
    real space projection operators read in
    PAW grid and wavefunctions read in

   number of l-projection  operators is LMAX  =           4
   number of lm-projection operators is LMMAX =           8

 -----------------------------------------------------------------------------
|                                                                             |
|               ----> ADVICE to this user running VASP <----                  |
|                                                                             |
|     You have a (more or less) 'large supercell' and for larger cells it     |
|     might be more efficient to use real-space projection operators.         |
|     Therefore, try LREAL= Auto in the INCAR file.                           |
|     Mind: For very accurate calculation, you might also keep the            |
|     reciprocal projection scheme (i.e. LREAL=.FALSE.).                      |
|                                                                             |
 -----------------------------------------------------------------------------

 -----------------------------------------------------------------------------
|                                                                             |
|               ----> ADVICE to this user running VASP <----                  |
|                                                                             |
|     You enforced a specific xc type in the INCAR file but a different       |
|     type was found in the POTCAR file.                                      |
|     I HOPE YOU KNOW WHAT YOU ARE DOING!                                     |
|                                                                             |
 -----------------------------------------------------------------------------

  PAW_PBE C 08Apr2002                   :
 energy of atom  1       EATOM= -147.1560
 kinetic energy error for atom=    0.0057 (will be added to EATOM!!)
  PAW_PBE O 08Apr2002                   :
 energy of atom  2       EATOM= -432.3788
 kinetic energy error for atom=    0.0168 (will be added to EATOM!!)
  PAW_PBE Mg_pv 13Apr2007               :
 energy of atom  3       EATOM=-1056.7344
 kinetic energy error for atom=    0.0221 (will be added to EATOM!!)
  PAW_PBE O 08Apr2002                   :
 energy of atom  4       EATOM= -432.3788
 kinetic energy error for atom=    0.0168 (will be added to EATOM!!)


 POSCAR:  C  O Mg  O
  positions in direct lattice
  No initial velocities read in
 exchange correlation table for  LEXCH =       40
   RHO(1)=    0.500       N(1)  =     2000
   RHO(2)=  100.500       N(2)  =     4000



--------------------------------------------------------------------------------------------------------


 ion  position               nearest neighbor table
   1  0.500  0.500  0.768-   2 1.15
   2  0.500  0.500  0.822-   1 1.15
   3  0.000  0.750  0.352-  35 2.11  37 2.11  38 2.11  45 2.11  54 2.11
   4  0.250  0.000  0.352-  36 2.11  37 2.11  38 2.11  46 2.11  53 2.11
   5  0.000  0.000  0.451-  37 2.11  36 2.11  35 2.11  43 2.11  52 2.11  41 2.12
   6  0.250  0.750  0.451-  38 2.11  36 2.11  35 2.11  44 2.11  51 2.11  42 2.12
   7  0.000  0.750  0.550-  49 2.11  42 2.11  58 2.11  41 2.11  35 2.12  39 2.15
   8  0.250  0.000  0.550-  57 2.11  50 2.11  42 2.11  41 2.11  36 2.12  40 2.15
   9  0.000  0.000  0.649-  39 2.11  40 2.11  47 2.11  56 2.11  41 2.11
  10  0.250  0.750  0.649-  42 2.11  40 2.11  39 2.11  48 2.11  55 2.11
  11  0.000  0.250  0.352-  43 2.11  37 2.11  45 2.11  46 2.11  62 2.11
  12  0.250  0.500  0.352-  44 2.11  38 2.11  45 2.11  46 2.11  61 2.11
  13  0.000  0.500  0.451-  45 2.11  43 2.11  44 2.11  35 2.11  60 2.11  49 2.12
  14  0.250  0.250  0.451-  46 2.11  43 2.11  44 2.11  36 2.11  59 2.11  50 2.12
  15  0.000  0.250  0.550-  49 2.11  50 2.11  66 2.11  41 2.11  43 2.12  47 2.15
  16  0.250  0.500  0.550-  65 2.11  50 2.11  42 2.11  49 2.11  44 2.13  48 2.15
  17  0.000  0.500  0.649-  48 2.10  64 2.10  49 2.11  47 2.11  39 2.11
  18  0.250  0.250  0.649-  50 2.11  47 2.11  40 2.11  48 2.11  63 2.11
  19  0.500  0.750  0.352-  51 2.11  38 2.11  53 2.11  54 2.11  61 2.11
  20  0.750  0.000  0.352-  52 2.11  37 2.11  53 2.11  54 2.11  62 2.11
  21  0.500  0.000  0.451-  53 2.11  51 2.11  52 2.11  36 2.11  59 2.11  57 2.12
  22  0.750  0.750  0.451-  54 2.11  51 2.11  52 2.11  35 2.11  60 2.11  58 2.12
  23  0.500  0.750  0.550-  65 2.11  58 2.11  42 2.11  57 2.11  51 2.13  55 2.15
  24  0.750  0.000  0.550-  57 2.11  58 2.11  66 2.11  41 2.11  52 2.12  56 2.15
  25  0.500  0.000  0.649-  55 2.10  63 2.10  57 2.11  40 2.11  56 2.11
  26  0.750  0.750  0.649-  58 2.11  56 2.11  39 2.11  55 2.11  64 2.11
  27  0.500  0.250  0.352-  59 2.11  53 2.11  46 2.11  61 2.11  62 2.11
  28  0.750  0.500  0.352-  60 2.11  54 2.11  45 2.11  61 2.11  62 2.11
  29  0.500  0.500  0.451-  61 2.11  51 2.11  59 2.11  60 2.11  44 2.11  65 2.13
  30  0.750  0.250  0.451-  62 2.11  52 2.11  59 2.11  60 2.11  43 2.11  66 2.12
  31  0.500  0.250  0.550-  65 2.11  50 2.11  66 2.11  57 2.11  59 2.13  63 2.15
  32  0.750  0.500  0.550-  65 2.11  58 2.11  66 2.11  49 2.11  60 2.13  64 2.15
  33  0.500  0.500  0.651-  48 2.12  55 2.12  63 2.12  64 2.12  65 2.14
  34  0.750  0.250  0.649-  66 2.11  56 2.11  47 2.11  64 2.11  63 2.11
  35  0.000  0.750  0.451-   3 2.11   5 2.11   6 2.11  13 2.11  22 2.11   7 2.12
  36  0.250  0.000  0.451-   4 2.11   5 2.11   6 2.11  14 2.11  21 2.11   8 2.12
  37  0.000  0.000  0.352-   5 2.11   4 2.11   3 2.11  11 2.11  20 2.11
  38  0.250  0.750  0.352-   6 2.11   4 2.11   3 2.11  12 2.11  19 2.11
  39  0.000  0.750  0.651-   9 2.11  10 2.11  26 2.11  17 2.11   7 2.15
  40  0.250  0.000  0.651-   9 2.11  10 2.11  18 2.11  25 2.11   8 2.15
  41  0.000  0.000  0.550-   9 2.11   8 2.11   7 2.11  15 2.11  24 2.11   5 2.12
  42  0.250  0.750  0.550-  10 2.11   8 2.11   7 2.11  16 2.11  23 2.11   6 2.12
  43  0.000  0.250  0.451-  11 2.11   5 2.11  13 2.11  14 2.11  30 2.11  15 2.12
  44  0.250  0.500  0.451-  12 2.11   6 2.11  13 2.11  14 2.11  29 2.11  16 2.13
  45  0.000  0.500  0.352-  13 2.11  11 2.11  12 2.11   3 2.11  28 2.11
  46  0.250  0.250  0.352-  14 2.11  11 2.11  12 2.11   4 2.11  27 2.11
  47  0.000  0.250  0.651-   9 2.11  18 2.11  34 2.11  17 2.11  15 2.15
  48  0.249  0.500  0.651-  17 2.10  10 2.11  18 2.11  33 2.12  16 2.15
  49  0.000  0.500  0.550-  17 2.11  15 2.11   7 2.11  16 2.11  32 2.11  13 2.12
  50  0.250  0.250  0.550-  18 2.11  15 2.11   8 2.11  16 2.11  31 2.11  14 2.12
  51  0.500  0.750  0.451-  19 2.11   6 2.11  21 2.11  22 2.11  29 2.11  23 2.13
  52  0.750  0.000  0.451-  20 2.11   5 2.11  21 2.11  22 2.11  30 2.11  24 2.12
  53  0.500  0.000  0.352-  21 2.11  19 2.11  20 2.11   4 2.11  27 2.11
  54  0.750  0.750  0.352-  22 2.11  19 2.11  20 2.11   3 2.11  28 2.11
  55  0.500  0.751  0.651-  25 2.10  10 2.11  26 2.11  33 2.12  23 2.15
  56  0.750  0.000  0.651-   9 2.11  26 2.11  34 2.11  25 2.11  24 2.15
  57  0.500  0.000  0.550-  25 2.11  24 2.11   8 2.11  23 2.11  31 2.11  21 2.12
  58  0.750  0.750  0.550-  26 2.11  24 2.11   7 2.11  32 2.11  23 2.11  22 2.12
  59  0.500  0.250  0.451-  27 2.11  21 2.11  14 2.11  29 2.11  30 2.11  31 2.13
  60  0.750  0.500  0.451-  28 2.11  22 2.11  13 2.11  29 2.11  30 2.11  32 2.13
  61  0.500  0.500  0.352-  29 2.11  19 2.11  27 2.11  28 2.11  12 2.11
  62  0.750  0.250  0.352-  30 2.11  20 2.11  27 2.11  28 2.11  11 2.11
  63  0.500  0.249  0.651-  25 2.10  18 2.11  34 2.11  33 2.12  31 2.15
  64  0.751  0.500  0.651-  17 2.10  26 2.11  34 2.11  33 2.12  32 2.15
  65  0.500  0.500  0.550-  16 2.11  23 2.11  31 2.11  32 2.11  29 2.13  33 2.14
  66  0.750  0.250  0.550-  34 2.11  24 2.11  15 2.11  32 2.11  31 2.11  30 2.12

  LATTYP: Found a simple tetragonal cell.
 ALAT       =     8.4409846542
 C/A-ratio  =     2.5270438657
  
  Lattice vectors:
  
 A1 = (   8.4409846542,   0.0000000000,   0.0000000000)
 A2 = (   0.0000000000,   8.4409846542,   0.0000000000)
 A3 = (   0.0000000000,   0.0000000000,  21.3307384906)


Analysis of symmetry for initial positions (statically):
=====================================================================
 Subroutine PRICEL returns:
 Original cell was already a primitive cell.
 

 Routine SETGRP: Setting up the symmetry group for a 
 simple tetragonal supercell.


 Subroutine GETGRP returns: Found  8 space group operations
 (whereof  8 operations were pure point group operations)
 out of a pool of 16 trial point group operations.


The static configuration has the point symmetry C_4v.


Analysis of symmetry for dynamics (positions and initial velocities):
=====================================================================
 Subroutine PRICEL returns:
 Original cell was already a primitive cell.
 

 Routine SETGRP: Setting up the symmetry group for a 
 simple tetragonal supercell.


 Subroutine GETGRP returns: Found  8 space group operations
 (whereof  8 operations were pure point group operations)
 out of a pool of 16 trial point group operations.


The dynamic configuration has the point symmetry C_4v.


 Subroutine INISYM returns: Found  8 space group operations
 (whereof  8 operations are pure point group operations),
 and found     1 'primitive' translations


----------------------------------------------------------------------------------------

                                     Primitive cell                                     

  volume of cell :    1519.8199

  direct lattice vectors                    reciprocal lattice vectors
     8.440984654  0.000000000  0.000000000     0.118469591  0.000000000  0.000000000
     0.000000000  8.440984654  0.000000000     0.000000000  0.118469591  0.000000000
     0.000000000  0.000000000 21.330738491     0.000000000  0.000000000  0.046880702

  length of vectors
     8.440984654  8.440984654 21.330738491     0.118469591  0.118469591  0.046880702

  position of ions in fractional coordinates (direct lattice)
     0.500000000  0.500000000  0.767818716
     0.500000000  0.500000000  0.821582434
     0.000000000  0.750000000  0.351605267
     0.250000000  0.000000000  0.351605267
     0.000000000  0.000000000  0.450535089
     0.250000000  0.750000000  0.450535089
     0.000000000  0.749939268  0.550083239
     0.250060732  0.000000000  0.550083239
     0.000000000  0.000000000  0.648745309
     0.249858327  0.750141673  0.648569547
     0.000000000  0.250000000  0.351605267
     0.250000000  0.500000000  0.351605267
     0.000000000  0.500000000  0.450535089
     0.250000000  0.250000000  0.450535089
     0.000000000  0.250060732  0.550083239
     0.250378379  0.500000000  0.550219524
     0.000000000  0.500000000  0.648615280
     0.249858327  0.249858327  0.648569547
     0.500000000  0.750000000  0.351605267
     0.750000000  0.000000000  0.351605267
     0.500000000  0.000000000  0.450535089
     0.750000000  0.750000000  0.450535089
     0.500000000  0.749621621  0.550219524
     0.749939268  0.000000000  0.550083239
     0.500000000  0.000000000  0.648615280
     0.750141673  0.750141673  0.648569547
     0.500000000  0.250000000  0.351605267
     0.750000000  0.500000000  0.351605267
     0.500000000  0.500000000  0.450535089
     0.750000000  0.250000000  0.450535089
     0.500000000  0.250378379  0.550219524
     0.749621621  0.500000000  0.550219524
     0.500000000  0.500000000  0.650616960
     0.750141673  0.249858327  0.648569547
     0.000000000  0.750000000  0.450535089
     0.250000000  0.000000000  0.450535089
     0.000000000  0.000000000  0.351605267
     0.250000000  0.750000000  0.351605267
     0.000000000  0.750218533  0.650979255
     0.249781467  0.000000000  0.650979255
     0.000000000  0.000000000  0.549809890
     0.249945770  0.750054230  0.549859113
     0.000000000  0.250000000  0.450535089
     0.250000000  0.500000000  0.450535089
     0.000000000  0.500000000  0.351605267
     0.250000000  0.250000000  0.351605267
     0.000000000  0.249781467  0.650979255
     0.248822710  0.500000000  0.650882872
     0.000000000  0.500000000  0.549762666
     0.249945770  0.249945770  0.549859113
     0.500000000  0.750000000  0.450535089
     0.750000000  0.000000000  0.450535089
     0.500000000  0.000000000  0.351605267
     0.750000000  0.750000000  0.351605267
     0.500000000  0.751177290  0.650882872
     0.750218533  0.000000000  0.650979255
     0.500000000  0.000000000  0.549762666
     0.750054230  0.750054230  0.549859113
     0.500000000  0.250000000  0.450535089
     0.750000000  0.500000000  0.450535089
     0.500000000  0.500000000  0.351605267
     0.750000000  0.250000000  0.351605267
     0.500000000  0.248822710  0.650882872
     0.751177290  0.500000000  0.650882872
     0.500000000  0.500000000  0.550231357
     0.750054230  0.249945770  0.549859113

  ion indices of the primitive-cell ions
   primitive index   ion index
                 1           1
                 2           2
                 3           3
                 4           4
                 5           5
                 6           6
                 7           7
                 8           8
                 9           9
                10          10
                11          11
                12          12
                13          13
                14          14
                15          15
                16          16
                17          17
                18          18
                19          19
                20          20
                21          21
                22          22
                23          23
                24          24
                25          25
                26          26
                27          27
                28          28
                29          29
                30          30
                31          31
                32          32
                33          33
                34          34
                35          35
                36          36
                37          37
                38          38
                39          39
                40          40
                41          41
                42          42
                43          43
                44          44
                45          45
                46          46
                47          47
                48          48
                49          49
                50          50
                51          51
                52          52
                53          53
                54          54
                55          55
                56          56
                57          57
                58          58
                59          59
                60          60
                61          61
                62          62
                63          63
                64          64
                65          65
                66          66

----------------------------------------------------------------------------------------



 KPOINTS: pymatgen v2020.8.13 with grid density = 

Automatic generation of k-mesh.
 Grid dimensions read from file:
 generate k-points for:    2    2    1

 Generating k-lattice:

  Cartesian coordinates                     Fractional coordinates (reciprocal lattice)
     0.059234796  0.000000000  0.000000000     0.500000000  0.000000000  0.000000000
     0.000000000  0.059234796  0.000000000     0.000000000  0.500000000  0.000000000
     0.000000000  0.000000000  0.046880702     0.000000000  0.000000000  1.000000000

  Length of vectors
     0.059234796  0.059234796  0.046880702

  Shift w.r.t. Gamma in fractional coordinates (k-lattice)
     0.000000000  0.000000000  0.000000000

 
 Subroutine IBZKPT returns following result:
 ===========================================
 
 Found      3 irreducible k-points:
 
 Following reciprocal coordinates:
            Coordinates               Weight
  0.000000  0.000000  0.000000      1.000000
  0.500000  0.000000  0.000000      2.000000
  0.500000  0.500000  0.000000      1.000000
 
 Following cartesian coordinates:
            Coordinates               Weight
  0.000000  0.000000  0.000000      1.000000
  0.059235  0.000000  0.000000      2.000000
  0.059235  0.059235  0.000000      1.000000
 


--------------------------------------------------------------------------------------------------------




 Dimension of arrays:
   k-points           NKPTS =      3   k-points in BZ     NKDIM =      3   number of bands    NBANDS=    320
   number of dos      NEDOS =    301   number of ions     NIONS =     66
   non local maximal  LDIM  =      5   non local SUM 2l+1 LMDIM =     13
   total plane-waves  NPLWV = 373248
   max r-space proj   IRMAX =      1   max aug-charges    IRDMAX=   5039
   dimension x,y,z NGX =    54 NGY =   54 NGZ =  128
   dimension x,y,z NGXF=   108 NGYF=  108 NGZF=  256
   support grid    NGXF=   108 NGYF=  108 NGZF=  256
   ions per type =               1   1  32  32
   NGX,Y,Z   is equivalent  to a cutoff of  10.64, 10.64,  9.98 a.u.
   NGXF,Y,Z  is equivalent  to a cutoff of  21.27, 21.27, 19.95 a.u.

 SYSTEM =  MgO-rocksalt                            
 POSCAR =   C  O Mg  O                             

 Startparameter for this run:
   NWRITE =      2    write-flag & timer
   PREC   = normal    normal or accurate (medium, high low for compatibility)
   ISTART =      0    job   : 0-new  1-cont  2-samecut
   ICHARG =      2    charge: 1-file 2-atom 10-const
   ISPIN  =      1    spin polarized calculation?
   LNONCOLLINEAR =      F non collinear calculations
   LSORBIT =      F    spin-orbit coupling
   INIWAV =      1    electr: 0-lowe 1-rand  2-diag
   LASPH  =      T    aspherical Exc in radial PAW
 Electronic Relaxation 1
   ENCUT  =  600.0 eV  44.10 Ry    6.64 a.u.  16.86 16.86 42.60*2*pi/ulx,y,z
   ENINI  =  600.0     initial cutoff
   ENAUG  =  758.8 eV  augmentation charge cutoff
   NELM   =    200;   NELMIN=  8; NELMDL= -5     # of ELM steps 
   EDIFF  = 0.1E-05   stopping-criterion for ELM
   LREAL  =      F    real-space projection
   NLSPLINE    = F    spline interpolate recip. space projectors
   LCOMPAT=      F    compatible to vasp.4.4
   GGA_COMPAT  = T    GGA compatible to vasp.4.4-vasp.4.6
   LMAXPAW     = -100 max onsite density
   LMAXMIX     =    2 max onsite mixed and CHGCAR
   VOSKOWN=      0    Vosko Wilk Nusair interpolation
   ROPT   =    0.00000   0.00000   0.00000   0.00000
 Ionic relaxation
   EDIFFG = -.1E-01   stopping-criterion for IOM
   NSW    =      0    number of steps for IOM
   NBLOCK =      1;   KBLOCK =      1    inner block; outer block 
   IBRION =     -1    ionic relax: 0-MD 1-quasi-New 2-CG
   NFREE  =      0    steps in history (QN), initial steepest desc. (CG)
   ISIF   =      2    stress and relaxation
   IWAVPR =     10    prediction:  0-non 1-charg 2-wave 3-comb
   ISYM   =      2    0-nonsym 1-usesym 2-fastsym
   LCORR  =      T    Harris-Foulkes like correction to forces

   POTIM  = 0.5000    time-step for ionic-motion
   TEIN   =    0.0    initial temperature
   TEBEG  =    0.0;   TEEND  =   0.0 temperature during run
   SMASS  =  -3.00    Nose mass-parameter (am)
   estimated Nose-frequenzy (Omega)   =  0.10E-29 period in steps = 0.13E+47 mass=  -0.163E-26a.u.
   SCALEE = 1.0000    scale energy and forces
   NPACO  =    256;   APACO  = 10.0  distance and # of slots for P.C.
   PSTRESS=    0.0 pullay stress

  Mass of Ions in am
   POMASS =  12.01 16.00 24.30 16.00
  Ionic Valenz
   ZVAL   =   4.00  6.00  8.00  6.00
  Atomic Wigner-Seitz radii
   RWIGS  =  -1.00 -1.00 -1.00 -1.00
  virtual crystal weights 
   VCA    =   1.00  1.00  1.00  1.00
   NELECT =     458.0000    total number of electrons
   NUPDOWN=      -1.0000    fix difference up-down

 DOS related values:
   EMIN   =  10.00;   EMAX   =-10.00  energy-range for DOS
   EFERMI =   0.00
   ISMEAR =     0;   SIGMA  =   0.05  broadening in eV -4-tet -1-fermi 0-gaus

 Electronic relaxation 2 (details)
   IALGO  =     58    algorithm
   LDIAG  =      T    sub-space diagonalisation (order eigenvalues)
   LSUBROT=      F    optimize rotation matrix (better conditioning)
   TURBO    =      0    0=normal 1=particle mesh
   IRESTART =      0    0=no restart 2=restart with 2 vectors
   NREBOOT  =      0    no. of reboots
   NMIN     =      0    reboot dimension
   EREF     =   0.00    reference energy to select bands
   IMIX   =      4    mixing-type and parameters
     AMIX     =   0.40;   BMIX     =  1.00
     AMIX_MAG =   1.60;   BMIX_MAG =  1.00
     AMIN     =   0.10
     WC   =   100.;   INIMIX=   1;  MIXPRE=   1;  MAXMIX= -45

 Intra band minimization:
   WEIMIN = 0.0000     energy-eigenvalue tresh-hold
   EBREAK =  0.78E-09  absolut break condition
   DEPER  =   0.30     relativ break condition  

   TIME   =   0.40     timestep for ELM

  volume/ion in A,a.u.               =      23.03       155.40
  Fermi-wavevector in a.u.,A,eV,Ry     =   1.097571  2.074108 16.390423  1.204662
  Thomas-Fermi vector in A             =   2.233933

 Write flags
   LWAVE        =      F    write WAVECAR
   LDOWNSAMPLE  =      F    k-point downsampling of WAVECAR
   LCHARG       =      F    write CHGCAR
   LVTOT        =      F    write LOCPOT, total local potential
   LVHAR        =      F    write LOCPOT, Hartree potential only
   LELF         =      F    write electronic localiz. function (ELF)
   LORBIT       =      0    0 simple, 1 ext, 2 COOP (PROOUT), +10 PAW based schemes


 Dipole corrections
   LMONO  =      F    monopole corrections only (constant potential shift)
   LDIPOL =      T    correct potential (dipole corrections)
   IDIPOL =      3    1-x, 2-y, 3-z, 4-all directions 
   EPSILON=  1.0000000 bulk dielectric constant

 Exchange correlation treatment:
   GGA     =    RE    GGA type
   LEXCH   =    40    internal setting for exchange type
   LIBXC   =     F    Libxc                    
   VOSKOWN =     0    Vosko Wilk Nusair interpolation
   LHFCALC =     F    Hartree Fock is set to
   LHFONE  =     F    Hartree Fock one center treatment
   AEXX    =    0.0000 exact exchange contribution

 vdW DFT:
   LUSE_VDW   =     T    switch on vdW DFT
   Zab_VDW    =-.8491    correlation parameter
   PARAM1     =0.1234
   PARAM2     =1.0000
   PARAM3     =0.0000
   -- rVV10 --
   BPARAM     = 6.3000
   CPARAM     = 0.0093

 Linear response parameters
   LEPSILON=     F    determine dielectric tensor
   LRPA    =     F    only Hartree local field effects (RPA)
   LNABLA  =     F    use nabla operator in PAW spheres
   LVEL    =     F    velocity operator in full k-point grid
   CSHIFT  =0.1000    complex shift for real part using Kramers Kronig
   OMEGAMAX=  -1.0    maximum frequency
   DEG_THRESHOLD= 0.2000000E-02 threshold for treating states as degnerate
   RTIME   =   -0.100 relaxation time in fs
  (WPLASMAI=    0.000 imaginary part of plasma frequency in eV, 0.658/RTIME)
   DFIELD  = 0.0000000 0.0000000 0.0000000 field for delta impulse in time

  Optional k-point grid parameters
   LKPOINTS_OPT  =     F    use optional k-point grid
   KPOINTS_OPT_MODE=     1    mode for optional k-point grid

 Orbital magnetization related:
   ORBITALMAG=     F  switch on orbital magnetization
   LCHIMAG   =     F  perturbation theory with respect to B field
   DQ        =  0.001000  dq finite difference perturbation B field
   LLRAUG    =     F  two centre corrections for induced B field



--------------------------------------------------------------------------------------------------------


 Static calculation
 charge density and potential will be updated during run
 non-spin polarized calculation
 Conjugate gradient for all bands (Freysoldt, et al. PRB 79, 241103 (2009))
 preconditioned conjugated gradient                                        
 perform sub-space diagonalisation
    before iterative eigenvector-optimisation
 modified Broyden-mixing scheme, WC =      100.0
 initial mixing is a Kerker type mixing with AMIX =  0.4000 and BMIX =      1.0000
 Hartree-type preconditioning will be used
 using additional bands           91
 reciprocal scheme for non local part
 use partial core corrections
 no Harris-corrections to forces 
 use gradient corrections 
 use of overlap-Matrix (Vanderbilt PP)
 Gauss-broadening in eV      SIGMA  =   0.05


--------------------------------------------------------------------------------------------------------


  energy-cutoff  :      600.00
  volume of cell :     1519.82
      direct lattice vectors                 reciprocal lattice vectors
     8.440984654  0.000000000  0.000000000     0.118469591  0.000000000  0.000000000
     0.000000000  8.440984654  0.000000000     0.000000000  0.118469591  0.000000000
     0.000000000  0.000000000 21.330738491     0.000000000  0.000000000  0.046880702

  length of vectors
     8.440984654  8.440984654 21.330738491     0.118469591  0.118469591  0.046880702



 k-points in units of 2pi/SCALE and weight: pymatgen v2020.8.13 with grid density = 
   0.00000000  0.00000000  0.00000000       0.250
   0.05923480  0.00000000  0.00000000       0.500
   0.05923480  0.05923480  0.00000000       0.250

 k-points in reciprocal lattice and weights: pymatgen v2020.8.13 with grid density = 
   0.00000000  0.00000000  0.00000000       0.250
   0.50000000  0.00000000  0.00000000       0.500
   0.50000000  0.50000000  0.00000000       0.250

 position of ions in fractional coordinates (direct lattice) 
   0.50000000  0.50000000  0.76781872
   0.50000000  0.50000000  0.82158243
   0.00000000  0.75000000  0.35160527
   0.25000000  0.00000000  0.35160527
   0.00000000  0.00000000  0.45053509
   0.25000000  0.75000000  0.45053509
   0.00000000  0.74993927  0.55008324
   0.25006073  0.00000000  0.55008324
   0.00000000  0.00000000  0.64874531
   0.24985833  0.75014167  0.64856955
   0.00000000  0.25000000  0.35160527
   0.25000000  0.50000000  0.35160527
   0.00000000  0.50000000  0.45053509
   0.25000000  0.25000000  0.45053509
   0.00000000  0.25006073  0.55008324
   0.25037838  0.50000000  0.55021952
   0.00000000  0.50000000  0.64861528
   0.24985833  0.24985833  0.64856955
   0.50000000  0.75000000  0.35160527
   0.75000000  0.00000000  0.35160527
   0.50000000  0.00000000  0.45053509
   0.75000000  0.75000000  0.45053509
   0.50000000  0.74962162  0.55021952
   0.74993927  0.00000000  0.55008324
   0.50000000  0.00000000  0.64861528
   0.75014167  0.75014167  0.64856955
   0.50000000  0.25000000  0.35160527
   0.75000000  0.50000000  0.35160527
   0.50000000  0.50000000  0.45053509
   0.75000000  0.25000000  0.45053509
   0.50000000  0.25037838  0.55021952
   0.74962162  0.50000000  0.55021952
   0.50000000  0.50000000  0.65061696
   0.75014167  0.24985833  0.64856955
   0.00000000  0.75000000  0.45053509
   0.25000000  0.00000000  0.45053509
   0.00000000  0.00000000  0.35160527
   0.25000000  0.75000000  0.35160527
   0.00000000  0.75021853  0.65097926
   0.24978147  0.00000000  0.65097926
   0.00000000  0.00000000  0.54980989
   0.24994577  0.75005423  0.54985911
   0.00000000  0.25000000  0.45053509
   0.25000000  0.50000000  0.45053509
   0.00000000  0.50000000  0.35160527
   0.25000000  0.25000000  0.35160527
   0.00000000  0.24978147  0.65097926
   0.24882271  0.50000000  0.65088287
   0.00000000  0.50000000  0.54976267
   0.24994577  0.24994577  0.54985911
   0.50000000  0.75000000  0.45053509
   0.75000000  0.00000000  0.45053509
   0.50000000  0.00000000  0.35160527
   0.75000000  0.75000000  0.35160527
   0.50000000  0.75117729  0.65088287
   0.75021853  0.00000000  0.65097926
   0.50000000  0.00000000  0.54976267
   0.75005423  0.75005423  0.54985911
   0.50000000  0.25000000  0.45053509
   0.75000000  0.50000000  0.45053509
   0.50000000  0.50000000  0.35160527
   0.75000000  0.25000000  0.35160527
   0.50000000  0.24882271  0.65088287
   0.75117729  0.50000000  0.65088287
   0.50000000  0.50000000  0.55023136
   0.75005423  0.24994577  0.54985911

 position of ions in cartesian coordinates  (Angst):
   4.22049233  4.22049233 16.37814023
   4.22049233  4.22049233 17.52496005
   0.00000000  6.33073849  7.50000000
   2.11024616  0.00000000  7.50000000
   0.00000000  0.00000000  9.61024616
   2.11024616  6.33073849  9.61024616
   0.00000000  6.33022585 11.73368172
   2.11075880  0.00000000 11.73368172
   0.00000000  0.00000000 13.83821654
   2.10905031  6.33193435 13.83446740
   0.00000000  2.11024616  7.50000000
   2.11024616  4.22049233  7.50000000
   0.00000000  4.22049233  9.61024616
   2.11024616  2.11024616  9.61024616
   0.00000000  2.11075880 11.73368172
   2.11344006  4.22049233 11.73658877
   0.00000000  4.22049233 13.83544293
   2.10905031  2.10905031 13.83446740
   4.22049233  6.33073849  7.50000000
   6.33073849  0.00000000  7.50000000
   4.22049233  0.00000000  9.61024616
   6.33073849  6.33073849  9.61024616
   4.22049233  6.32754460 11.73658877
   6.33022585  0.00000000 11.73368172
   4.22049233  0.00000000 13.83544293
   6.33193435  6.33193435 13.83446740
   4.22049233  2.11024616  7.50000000
   6.33073849  4.22049233  7.50000000
   4.22049233  4.22049233  9.61024616
   6.33073849  2.11024616  9.61024616
   4.22049233  2.11344006 11.73658877
   6.32754460  4.22049233 11.73658877
   4.22049233  4.22049233 13.87814023
   6.33193435  2.10905031 13.83446740
   0.00000000  6.33073849  9.61024616
   2.11024616  0.00000000  9.61024616
   0.00000000  0.00000000  7.50000000
   2.11024616  6.33073849  7.50000000
   0.00000000  6.33258312 13.88586825
   2.10840153  0.00000000 13.88586825
   0.00000000  0.00000000 11.72785099
   2.10978841  6.33119624 11.72890095
   0.00000000  2.11024616  9.61024616
   2.11024616  4.22049233  9.61024616
   0.00000000  4.22049233  7.50000000
   2.11024616  2.11024616  7.50000000
   0.00000000  2.10840153 13.88586825
   2.10030867  4.22049233 13.88381232
   0.00000000  4.22049233 11.72684365
   2.10978841  2.10978841 11.72890095
   4.22049233  6.33073849  9.61024616
   6.33073849  0.00000000  9.61024616
   4.22049233  0.00000000  7.50000000
   6.33073849  6.33073849  7.50000000
   4.22049233  6.34067598 13.88381232
   6.33258312  0.00000000 13.88586825
   4.22049233  0.00000000 11.72684365
   6.33119624  6.33119624 11.72890095
   4.22049233  2.11024616  9.61024616
   6.33073849  4.22049233  9.61024616
   4.22049233  4.22049233  7.50000000
   6.33073849  2.11024616  7.50000000
   4.22049233  2.10030867 13.88381232
   6.34067598  4.22049233 13.88381232
   4.22049233  4.22049233 11.73684118
   6.33119624  2.10978841 11.72890095



--------------------------------------------------------------------------------------------------------


 k-point   1 :   0.0000 0.0000 0.0000  plane waves:   50745
 k-point   2 :   0.5000 0.0000 0.0000  plane waves:   50798
 k-point   3 :   0.5000 0.5000 0.0000  plane waves:   50752

 maximum and minimum number of plane-waves per node :     12720    12632

 maximum number of plane-waves:     50798
 maximum index in each direction: 
   IXMAX=   16   IYMAX=   16   IZMAX=   42
   IXMIN=  -17   IYMIN=  -17   IZMIN=  -42


 parallel 3D FFT for wavefunctions:
    minimum data exchange during FFTs selected (reduces bandwidth)
 parallel 3D FFT for charge:
    minimum data exchange during FFTs selected (reduces bandwidth)


 total amount of memory used by VASP MPI-rank0    78528. kBytes
=======================================================================

   base      :      30000. kBytes
   nonl-proj :      29343. kBytes
   fftplans  :       3857. kBytes
   grid      :       5885. kBytes
   one-center:        137. kBytes
   wavefun   :       9306. kBytes

     INWAV:  cpu time      0.0001: real time      0.0004
 Broyden mixing: mesh for mixing (old mesh)
   NGX = 33   NGY = 33   NGZ = 85
  (NGX  =108   NGY  =108   NGZ  =256)
  gives a total of  92565 points

 initial charge density was supplied:
 charge density of overlapping atoms calculated
 number of electron     458.0000000 magnetization 
 keeping initial charge density in first step


--------------------------------------------------------------------------------------------------------


 Maximum index for augmentation-charges          334 (set IRDMAX)


--------------------------------------------------------------------------------------------------------


 First call to EWALD:  gamma=   0.154
 Maximum number of real-space cells 4x 4x 2
 Maximum number of reciprocal cells 2x 2x 5

    FEWALD:  cpu time      0.0078: real time      0.0078


--------------------------------------- Iteration      1(   1)  ---------------------------------------


vdW kernel read from vdw_kernel.bindat
  0.0000  0.2424  0.5071  0.7962  1.1119  1.4567  1.8333  2.2446  2.6937  3.1842
  3.7199  4.3049  4.9438  5.6415  6.4036  7.2358  8.1446  9.1372 10.2212 11.4050
 12.6979 14.1099 15.6519 17.3360 19.1751 21.1837 23.3773 25.7729 28.3892 31.2465
 34.3669 37.7748 41.4965 45.5611 50.0000

    POTLOK:  cpu time      0.9553: real time      0.9592
    SETDIJ:  cpu time      0.1206: real time      0.1207
    TRIAL :  cpu time      5.4309: real time      5.5217
    CORREC:  cpu time      0.0013: real time      0.0013
    --------------------------------------------
      LOOP:  cpu time      6.5101: real time      6.6718

 eigenvalue-minimisations  :  2304
 total energy-change (2. order) : 0.4310915E+04  (-0.3069083E+05)
 number of electron     458.0000000 magnetization 
 augmentation part      458.0000000 magnetization 

 DIPCOR: dipole corrections for dipol
 direction  3 min pos     1,
 dipolmoment           0.000000      0.000000     -0.000297 electrons x Angstroem
 Tr[quadrupol]     -6318.707632

 energy correction for charged system         0.000000 eV
 dipol+quadrupol energy correction           -0.000000 eV
 added-field ion interaction          0.002424 eV  (added to PSCEN)


 Free energy of the ion-electron system (eV)
  ---------------------------------------------------
  alpha Z        PSCENC =       907.96652769
  Ewald energy   TEWEN  =    137007.52336140
  -Hartree energ DENC   =   -173106.72891476
  -exchange      EXHF   =         0.00000000
  -V(xc)+E(xc)   XCENC  =      1735.53527253
  PAW double counting   =     32391.11887895   -36187.02304673
  entropy T*S    EENTRO =        -0.02408291
  eigenvalues    EBANDS =     -6985.09432475
  atomic energy  EATOM  =     48547.64153090
  ---------------------------------------------------
  free energy    TOTEN  =      4310.91520234 eV

  energy without entropy =     4310.93928524  energy(sigma->0) =     4310.92724379


--------------------------------------------------------------------------------------------------------




--------------------------------------- Iteration      1(   2)  ---------------------------------------


    TRIAL :  cpu time      2.2518: real time      2.2521
    CORREC:  cpu time      0.0003: real time      0.0003
    --------------------------------------------
      LOOP:  cpu time      2.2658: real time      2.2664

 eigenvalue-minimisations  :  2304
 total energy-change (2. order) :-0.4303054E+04  (-0.4228143E+04)
 number of electron     458.0000000 magnetization 
 augmentation part      458.0000000 magnetization 

 DIPCOR: dipole corrections for dipol
 direction  3 min pos     1,
 dipolmoment           0.000000      0.000000     -0.000297 electrons x Angstroem
 Tr[quadrupol]     -6318.707632

 energy correction for charged system         0.000000 eV
 dipol+quadrupol energy correction           -0.000000 eV
 added-field ion interaction          0.002424 eV  (added to PSCEN)


 Free energy of the ion-electron system (eV)
  ---------------------------------------------------
  alpha Z        PSCENC =       907.96652769
  Ewald energy   TEWEN  =    137007.52336140
  -Hartree energ DENC   =   -173106.72891476
  -exchange      EXHF   =         0.00000000
  -V(xc)+E(xc)   XCENC  =      1735.53527253
  PAW double counting   =     32391.11887895   -36187.02304673
  entropy T*S    EENTRO =        -0.00000000
  eigenvalues    EBANDS =    -11288.17247354
  atomic energy  EATOM  =     48547.64153090
  ---------------------------------------------------
  free energy    TOTEN  =         7.86113645 eV

  energy without entropy =        7.86113645  energy(sigma->0) =        7.86113645


--------------------------------------------------------------------------------------------------------




--------------------------------------- Iteration      1(   3)  ---------------------------------------


    TRIAL :  cpu time      2.3810: real time      2.3818
    CORREC:  cpu time      0.0003: real time      0.0003
    --------------------------------------------
      LOOP:  cpu time      2.3863: real time      2.3966

 eigenvalue-minimisations  :  2304
 total energy-change (2. order) :-0.3136816E+03  (-0.3117302E+03)
 number of electron     458.0000000 magnetization 
 augmentation part      458.0000000 magnetization 

 DIPCOR: dipole corrections for dipol
 direction  3 min pos     1,
 dipolmoment           0.000000      0.000000     -0.000297 electrons x Angstroem
 Tr[quadrupol]     -6318.707632

 energy correction for charged system         0.000000 eV
 dipol+quadrupol energy correction           -0.000000 eV
 added-field ion interaction          0.002424 eV  (added to PSCEN)


 Free energy of the ion-electron system (eV)
  ---------------------------------------------------
  alpha Z        PSCENC =       907.96652769
  Ewald energy   TEWEN  =    137007.52336140
  -Hartree energ DENC   =   -173106.72891476
  -exchange      EXHF   =         0.00000000
  -V(xc)+E(xc)   XCENC  =      1735.53527253
  PAW double counting   =     32391.11887895   -36187.02304673
  entropy T*S    EENTRO =        -0.00000000
  eigenvalues    EBANDS =    -11601.85406324
  atomic energy  EATOM  =     48547.64153090
  ---------------------------------------------------
  free energy    TOTEN  =      -305.82045325 eV

  energy without entropy =     -305.82045325  energy(sigma->0) =     -305.82045325


--------------------------------------------------------------------------------------------------------




--------------------------------------- Iteration      1(   4)  ---------------------------------------


    TRIAL :  cpu time      2.3667: real time      2.3668
    CORREC:  cpu time      0.0003: real time      0.0003
    --------------------------------------------
      LOOP:  cpu time      2.3720: real time      2.3812

 eigenvalue-minimisations  :  2368
 total energy-change (2. order) :-0.5886222E+01  (-0.5879444E+01)
 number of electron     458.0000000 magnetization 
 augmentation part      458.0000000 magnetization 

 DIPCOR: dipole corrections for dipol
 direction  3 min pos     1,
 dipolmoment           0.000000      0.000000     -0.000297 electrons x Angstroem
 Tr[quadrupol]     -6318.707632

 energy correction for charged system         0.000000 eV
 dipol+quadrupol energy correction           -0.000000 eV
 added-field ion interaction          0.002424 eV  (added to PSCEN)


 Free energy of the ion-electron system (eV)
  ---------------------------------------------------
  alpha Z        PSCENC =       907.96652769
  Ewald energy   TEWEN  =    137007.52336140
  -Hartree energ DENC   =   -173106.72891476
  -exchange      EXHF   =         0.00000000
  -V(xc)+E(xc)   XCENC  =      1735.53527253
  PAW double counting   =     32391.11887895   -36187.02304673
  entropy T*S    EENTRO =        -0.00000000
  eigenvalues    EBANDS =    -11607.74028543
  atomic energy  EATOM  =     48547.64153090
  ---------------------------------------------------
  free energy    TOTEN  =      -311.70667544 eV

  energy without entropy =     -311.70667544  energy(sigma->0) =     -311.70667544


--------------------------------------------------------------------------------------------------------




--------------------------------------- Iteration      1(   5)  ---------------------------------------


    TRIAL :  cpu time      2.1453: real time      2.1454
    CORREC:  cpu time      0.0003: real time      0.0003
    CHARGE:  cpu time      0.0743: real time      0.0745
    --------------------------------------------
      LOOP:  cpu time      2.2258: real time      2.2344

 eigenvalue-minimisations  :  2240
 total energy-change (2. order) :-0.7433053E-01  (-0.7432811E-01)
 number of electron     457.9999397 magnetization 
 augmentation part      160.5740409 magnetization 

 DIPCOR: dipole corrections for dipol
 direction  3 min pos     1,
 dipolmoment           0.000000      0.000000     -0.000297 electrons x Angstroem
 Tr[quadrupol]     -6318.707632

 energy correction for charged system         0.000000 eV
 dipol+quadrupol energy correction           -0.000000 eV
 added-field ion interaction          0.002424 eV  (added to PSCEN)


 Free energy of the ion-electron system (eV)
  ---------------------------------------------------
  alpha Z        PSCENC =       907.96652769
  Ewald energy   TEWEN  =    137007.52336140
  -Hartree energ DENC   =   -173106.72891476
  -exchange      EXHF   =         0.00000000
  -V(xc)+E(xc)   XCENC  =      1735.53527253
  PAW double counting   =     32391.11887895   -36187.02304673
  entropy T*S    EENTRO =        -0.00000000
  eigenvalues    EBANDS =    -11607.81461596
  atomic energy  EATOM  =     48547.64153090
  ---------------------------------------------------
  free energy    TOTEN  =      -311.78100597 eV

  energy without entropy =     -311.78100597  energy(sigma->0) =     -311.78100597


--------------------------------------------------------------------------------------------------------




--------------------------------------- Iteration      1(   6)  ---------------------------------------


    POTLOK:  cpu time      0.3219: real time      0.3220
    SETDIJ:  cpu time      0.1849: real time      0.1849
    TRIAL :  cpu time      0.6751: real time      0.6757
    CORREC:  cpu time      0.8077: real time      0.8079
    CHARGE:  cpu time      0.0538: real time      0.0538
    --------------------------------------------
      LOOP:  cpu time      2.0573: real time      2.0583

 eigenvalue-minimisations  :     0
 total energy-change (2. order) : 0.2025976E+03  (-0.1135292E+03)
 number of electron     457.9999280 magnetization 
 augmentation part      157.2118593 magnetization 

 DIPCOR: dipole corrections for dipol
 direction  3 min pos     1,
 dipolmoment           0.000000      0.000000      0.220571 electrons x Angstroem
 Tr[quadrupol]     -6352.244016

 energy correction for charged system         0.000000 eV
 dipol+quadrupol energy correction           -0.002896 eV
 added-field ion interaction         -1.801488 eV  (added to PSCEN)


 Free energy of the ion-electron system (eV)
  ---------------------------------------------------
  alpha Z        PSCENC =       903.87302851
  Ewald energy   TEWEN  =    137007.52336140
  -Hartree energ DENC   =   -177123.64667628
  -exchange      EXHF   =         0.00000000
  -V(xc)+E(xc)   XCENC  =      1872.29519699
  PAW double counting   =     37226.01917640   -40994.03142037
  entropy T*S    EENTRO =        -0.00000000
  eigenvalues    EBANDS =     -7548.85755750
  atomic energy  EATOM  =     48547.64153090
  ---------------------------------------------------
  free energy    TOTEN  =      -109.18335995 eV

  energy without entropy =     -109.18335995  energy(sigma->0) =     -109.18335995


--------------------------------------------------------------------------------------------------------




--------------------------------------- Iteration      1(   7)  ---------------------------------------


    POTLOK:  cpu time      0.3106: real time      0.3106
    SETDIJ:  cpu time      0.1892: real time      0.1892
    TRIAL :  cpu time      0.6021: real time      0.6021
    CORREC:  cpu time      0.7933: real time      0.7938
    CHARGE:  cpu time      0.0539: real time      0.0539
    --------------------------------------------
      LOOP:  cpu time      1.9542: real time      1.9638

 eigenvalue-minimisations  :     0
 total energy-change (2. order) :-0.1141005E+03  (-0.7956165E+01)
 number of electron     457.9999269 magnetization 
 augmentation part      155.2963844 magnetization 

 DIPCOR: dipole corrections for dipol
 direction  3 min pos     1,
 dipolmoment           0.000000      0.000000      0.185600 electrons x Angstroem
 Tr[quadrupol]     -6359.640610

 energy correction for charged system         0.000000 eV
 dipol+quadrupol energy correction           -0.002051 eV
 added-field ion interaction         -1.515867 eV  (added to PSCEN)


 Free energy of the ion-electron system (eV)
  ---------------------------------------------------
  alpha Z        PSCENC =       905.86845983
  Ewald energy   TEWEN  =    137007.52336140
  -Hartree energ DENC   =   -175115.58097019
  -exchange      EXHF   =         0.00000000
  -V(xc)+E(xc)   XCENC  =      1796.36609596
  PAW double counting   =     36008.89385946   -39840.56718306
  entropy T*S    EENTRO =        -0.00000000
  eigenvalues    EBANDS =     -9533.42902841
  atomic energy  EATOM  =     48547.64153090
  ---------------------------------------------------
  free energy    TOTEN  =      -223.28387411 eV

  energy without entropy =     -223.28387411  energy(sigma->0) =     -223.28387411


--------------------------------------------------------------------------------------------------------




--------------------------------------- Iteration      1(   8)  ---------------------------------------


    POTLOK:  cpu time      0.3139: real time      0.3139
    SETDIJ:  cpu time      0.1848: real time      0.1848
    TRIAL :  cpu time      0.6027: real time      0.6027
    CORREC:  cpu time      0.7946: real time      0.7947
    CHARGE:  cpu time      0.0547: real time      0.0547
    --------------------------------------------
      LOOP:  cpu time      1.9649: real time      1.9652

 eigenvalue-minimisations  :     0
 total energy-change (2. order) :-0.7984476E+01  (-0.4955218E+01)
 number of electron     457.9999250 magnetization 
 augmentation part      155.4290895 magnetization 

 DIPCOR: dipole corrections for dipol
 direction  3 min pos     1,
 dipolmoment           0.000000      0.000000      0.103422 electrons x Angstroem
 Tr[quadrupol]     -6358.130027

 energy correction for charged system         0.000000 eV
 dipol+quadrupol energy correction           -0.000637 eV
 added-field ion interaction         -0.844688 eV  (added to PSCEN)


 Free energy of the ion-electron system (eV)
  ---------------------------------------------------
  alpha Z        PSCENC =       906.67207304
  Ewald energy   TEWEN  =    137007.52336140
  -Hartree energ DENC   =   -175065.51796283
  -exchange      EXHF   =         0.00000000
  -V(xc)+E(xc)   XCENC  =      1786.88624259
  PAW double counting   =     35911.37898523   -39674.30133406
  entropy T*S    EENTRO =        -0.00000000
  eigenvalues    EBANDS =     -9651.55124621
  atomic energy  EATOM  =     48547.64153090
  ---------------------------------------------------
  free energy    TOTEN  =      -231.26834994 eV

  energy without entropy =     -231.26834994  energy(sigma->0) =     -231.26834994


--------------------------------------------------------------------------------------------------------




--------------------------------------- Iteration      1(   9)  ---------------------------------------


    POTLOK:  cpu time      0.3120: real time      0.3120
    SETDIJ:  cpu time      0.1898: real time      0.1898
    TRIAL :  cpu time      0.6020: real time      0.6021
    CORREC:  cpu time      0.7974: real time      0.7974
    CHARGE:  cpu time      0.0545: real time      0.0545
    --------------------------------------------
      LOOP:  cpu time      1.9612: real time      1.9706

 eigenvalue-minimisations  :     0
 total energy-change (2. order) :-0.4813490E+01  (-0.1825145E+01)
 number of electron     457.9999250 magnetization 
 augmentation part      155.3968487 magnetization 

 DIPCOR: dipole corrections for dipol
 direction  3 min pos     1,
 dipolmoment           0.000000      0.000000      0.108735 electrons x Angstroem
 Tr[quadrupol]     -6348.735577

 energy correction for charged system         0.000000 eV
 dipol+quadrupol energy correction           -0.000704 eV
 added-field ion interaction         -0.888081 eV  (added to PSCEN)


 Free energy of the ion-electron system (eV)
  ---------------------------------------------------
  alpha Z        PSCENC =       907.36353654
  Ewald energy   TEWEN  =    137007.52336140
  -Hartree energ DENC   =   -174903.03242837
  -exchange      EXHF   =         0.00000000
  -V(xc)+E(xc)   XCENC  =      1785.99002077
  PAW double counting   =     35821.05591679   -39624.04832543
  entropy T*S    EENTRO =        -0.00000000
  eigenvalues    EBANDS =     -9778.57545248
  atomic energy  EATOM  =     48547.64153090
  ---------------------------------------------------
  free energy    TOTEN  =      -236.08183988 eV

  energy without entropy =     -236.08183988  energy(sigma->0) =     -236.08183988


--------------------------------------------------------------------------------------------------------




--------------------------------------- Iteration      1(  10)  ---------------------------------------


    POTLOK:  cpu time      0.3093: real time      0.3093
    SETDIJ:  cpu time      0.1901: real time      0.1901
    TRIAL :  cpu time      0.6029: real time      0.6029
    CORREC:  cpu time      0.7970: real time      0.7971
    CHARGE:  cpu time      0.0549: real time      0.0549
    --------------------------------------------
      LOOP:  cpu time      1.9682: real time      1.9685

 eigenvalue-minimisations  :     0
 total energy-change (2. order) :-0.1858986E+01  (-0.6462032E+00)
 number of electron     457.9999258 magnetization 
 augmentation part      155.3464966 magnetization 

 DIPCOR: dipole corrections for dipol
 direction  3 min pos     1,
 dipolmoment           0.000000      0.000000      0.143953 electrons x Angstroem
 Tr[quadrupol]     -6348.331958

 energy correction for charged system         0.000000 eV
 dipol+quadrupol energy correction           -0.001234 eV
 added-field ion interaction         -1.175719 eV  (added to PSCEN)


 Free energy of the ion-electron system (eV)
  ---------------------------------------------------
  alpha Z        PSCENC =       907.15069174
  Ewald energy   TEWEN  =    137007.52336140
  -Hartree energ DENC   =   -174693.98890521
  -exchange      EXHF   =         0.00000000
  -V(xc)+E(xc)   XCENC  =      1783.82738417
  PAW double counting   =     35707.44298448   -39515.45466962
  entropy T*S    EENTRO =        -0.00000000
  eigenvalues    EBANDS =     -9982.08320381
  atomic energy  EATOM  =     48547.64153090
  ---------------------------------------------------
  free energy    TOTEN  =      -237.94082594 eV

  energy without entropy =     -237.94082594  energy(sigma->0) =     -237.94082594


--------------------------------------------------------------------------------------------------------




--------------------------------------- Iteration      1(  11)  ---------------------------------------


    POTLOK:  cpu time      0.3130: real time      0.3130
    SETDIJ:  cpu time      0.1880: real time      0.1880
    TRIAL :  cpu time      0.6017: real time      0.6017
    CORREC:  cpu time      0.7916: real time      0.7916
    CHARGE:  cpu time      0.0540: real time      0.0540
    --------------------------------------------
      LOOP:  cpu time      1.9535: real time      1.9634

 eigenvalue-minimisations  :     0
 total energy-change (2. order) :-0.6477105E+00  (-0.2545110E+00)
 number of electron     457.9999263 magnetization 
 augmentation part      155.4700891 magnetization 

 DIPCOR: dipole corrections for dipol
 direction  3 min pos     1,
 dipolmoment           0.000000      0.000000      0.141622 electrons x Angstroem
 Tr[quadrupol]     -6349.534705

 energy correction for charged system         0.000000 eV
 dipol+quadrupol energy correction           -0.001194 eV
 added-field ion interaction         -1.156684 eV  (added to PSCEN)


 Free energy of the ion-electron system (eV)
  ---------------------------------------------------
  alpha Z        PSCENC =       906.84497008
  Ewald energy   TEWEN  =    137007.52336140
  -Hartree energ DENC   =   -174629.26508735
  -exchange      EXHF   =         0.00000000
  -V(xc)+E(xc)   XCENC  =      1782.81776052
  PAW double counting   =     35648.61358555   -39446.89365689
  entropy T*S    EENTRO =        -0.00000000
  eigenvalues    EBANDS =    -10055.87100063
  atomic energy  EATOM  =     48547.64153090
  ---------------------------------------------------
  free energy    TOTEN  =      -238.58853642 eV

  energy without entropy =     -238.58853642  energy(sigma->0) =     -238.58853642


--------------------------------------------------------------------------------------------------------




--------------------------------------- Iteration      1(  12)  ---------------------------------------


    POTLOK:  cpu time      0.3121: real time      0.3121
    SETDIJ:  cpu time      0.1950: real time      0.1950
    TRIAL :  cpu time      0.6019: real time      0.6020
    CORREC:  cpu time      0.7961: real time      0.7967
    CHARGE:  cpu time      0.0544: real time      0.0544
    --------------------------------------------
      LOOP:  cpu time      1.9644: real time      1.9745

 eigenvalue-minimisations  :     0
 total energy-change (2. order) :-0.2544583E+00  (-0.9826263E-01)
 number of electron     457.9999264 magnetization 
 augmentation part      155.5990843 magnetization 

 DIPCOR: dipole corrections for dipol
 direction  3 min pos     1,
 dipolmoment           0.000000      0.000000      0.135273 electrons x Angstroem
 Tr[quadrupol]     -6350.544299

 energy correction for charged system         0.000000 eV
 dipol+quadrupol energy correction           -0.001089 eV
 added-field ion interaction         -1.104825 eV  (added to PSCEN)


 Free energy of the ion-electron system (eV)
  ---------------------------------------------------
  alpha Z        PSCENC =       906.80773959
  Ewald energy   TEWEN  =    137007.52336140
  -Hartree energ DENC   =   -174667.34482087
  -exchange      EXHF   =         0.00000000
  -V(xc)+E(xc)   XCENC  =      1783.28724532
  PAW double counting   =     35636.08994521   -39433.16651746
  entropy T*S    EENTRO =        -0.00000000
  eigenvalues    EBANDS =    -10019.68147884
  atomic energy  EATOM  =     48547.64153090
  ---------------------------------------------------
  free energy    TOTEN  =      -238.84299476 eV

  energy without entropy =     -238.84299476  energy(sigma->0) =     -238.84299476


--------------------------------------------------------------------------------------------------------




--------------------------------------- Iteration      1(  13)  ---------------------------------------


    POTLOK:  cpu time      0.3140: real time      0.3141
    SETDIJ:  cpu time      0.1847: real time      0.1847
    TRIAL :  cpu time      0.6034: real time      0.6034
    CORREC:  cpu time      0.7917: real time      0.7917
    CHARGE:  cpu time      0.0544: real time      0.0544
    --------------------------------------------
      LOOP:  cpu time      1.9552: real time      1.9629

 eigenvalue-minimisations  :     0
 total energy-change (2. order) :-0.9826295E-01  (-0.4891837E-01)
 number of electron     457.9999264 magnetization 
 augmentation part      155.6427490 magnetization 

 DIPCOR: dipole corrections for dipol
 direction  3 min pos     1,
 dipolmoment           0.000000      0.000000      0.133493 electrons x Angstroem
 Tr[quadrupol]     -6351.102830

 energy correction for charged system         0.000000 eV
 dipol+quadrupol energy correction           -0.001061 eV
 added-field ion interaction         -1.090293 eV  (added to PSCEN)


 Free energy of the ion-electron system (eV)
  ---------------------------------------------------
  alpha Z        PSCENC =       906.85820489
  Ewald energy   TEWEN  =    137007.52336140
  -Hartree energ DENC   =   -174708.69468926
  -exchange      EXHF   =         0.00000000
  -V(xc)+E(xc)   XCENC  =      1783.73246012
  PAW double counting   =     35635.14899561   -39436.11472105
  entropy T*S    EENTRO =        -0.00000000
  eigenvalues    EBANDS =     -9975.03640032
  atomic energy  EATOM  =     48547.64153090
  ---------------------------------------------------
  free energy    TOTEN  =      -238.94125771 eV

  energy without entropy =     -238.94125771  energy(sigma->0) =     -238.94125771


--------------------------------------------------------------------------------------------------------




--------------------------------------- Iteration      1(  14)  ---------------------------------------


    POTLOK:  cpu time      0.3155: real time      0.3155
    SETDIJ:  cpu time      0.1852: real time      0.1852
    TRIAL :  cpu time      0.6025: real time      0.6026
    CORREC:  cpu time      0.7926: real time      0.7926
    CHARGE:  cpu time      0.0550: real time      0.0550
    --------------------------------------------
      LOOP:  cpu time      1.9562: real time      1.9655

 eigenvalue-minimisations  :     0
 total energy-change (2. order) :-0.4897566E-01  (-0.2326651E-01)
 number of electron     457.9999263 magnetization 
 augmentation part      155.6183321 magnetization 

 DIPCOR: dipole corrections for dipol
 direction  3 min pos     1,
 dipolmoment           0.000000      0.000000      0.135011 electrons x Angstroem
 Tr[quadrupol]     -6351.498116

 energy correction for charged system         0.000000 eV
 dipol+quadrupol energy correction           -0.001085 eV
 added-field ion interaction         -1.102687 eV  (added to PSCEN)


 Free energy of the ion-electron system (eV)
  ---------------------------------------------------
  alpha Z        PSCENC =       906.87449654
  Ewald energy   TEWEN  =    137007.52336140
  -Hartree energ DENC   =   -174728.16731884
  -exchange      EXHF   =         0.00000000
  -V(xc)+E(xc)   XCENC  =      1783.76354322
  PAW double counting   =     35634.27977847   -39437.29008407
  entropy T*S    EENTRO =        -0.00000000
  eigenvalues    EBANDS =     -9953.61554098
  atomic energy  EATOM  =     48547.64153090
  ---------------------------------------------------
  free energy    TOTEN  =      -238.99023337 eV

  energy without entropy =     -238.99023337  energy(sigma->0) =     -238.99023337


--------------------------------------------------------------------------------------------------------




--------------------------------------- Iteration      1(  15)  ---------------------------------------


[...]
    269       6.6264      0.00000
    270       6.6264      0.00000
    271       6.6849      0.00000
    272       6.8002      0.00000
    273       7.0939      0.00000
    274       7.0939      0.00000
    275       7.4023      0.00000
    276       7.7288      0.00000
    277       7.7444      0.00000
    278       7.7444      0.00000
    279       7.7483      0.00000
    280       8.1337      0.00000
    281       8.1348      0.00000
    282       8.1394      0.00000
    283       8.1416      0.00000
    284       8.1456      0.00000
    285       8.1541      0.00000
    286       8.1636      0.00000
    287       8.1655      0.00000
    288       8.2563      0.00000
    289       8.3104      0.00000
    290       8.3227      0.00000
    291       8.3749      0.00000
    292       8.4052      0.00000
    293       8.4725      0.00000
    294       8.5282      0.00000
    295       8.5459      0.00000
    296       8.5931      0.00000
    297       8.6002      0.00000
    298       8.6096      0.00000
    299       8.6101      0.00000
    300       8.6842      0.00000
    301       8.9145      0.00000
    302       8.9318      0.00000
    303       8.9798      0.00000
    304       8.9885      0.00000
    305       9.3217      0.00000
    306       9.3709      0.00000
    307       9.4696      0.00000
    308       9.4826      0.00000
    309       9.5606      0.00000
    310       9.6534      0.00000
    311       9.6676      0.00000
    312       9.6993      0.00000
    313       9.7485      0.00000
    314       9.8158      0.00000
    315       9.8930      0.00000
    316       9.9005      0.00000
    317      10.1953      0.00000
    318      10.2972      0.00000
    319      10.4495      0.00000
    320      10.4690      0.00000


--------------------------------------------------------------------------------------------------------


 soft charge-density along one line, spin component           1
         0         1         2         3         4         5         6         7         8         9
 total charge-density along one line

 pseudopotential strength for first ion, spin component:           1
 10.256  13.638   0.000   0.022   0.000  -0.000  -0.063  -0.000
 13.638  18.133   0.000   0.028   0.000  -0.000  -0.081  -0.000
  0.000   0.000  -4.346  -0.000  -0.000   8.548   0.000   0.000
  0.022   0.028  -0.000  -4.334   0.000   0.000   8.488  -0.000
  0.000   0.000  -0.000   0.000  -4.346   0.000  -0.000   8.548
 -0.000  -0.000   8.548   0.000   0.000 -18.953  -0.000  -0.000
 -0.063  -0.081   0.000   8.488  -0.000  -0.000 -18.760   0.000
 -0.000  -0.000   0.000  -0.000   8.548  -0.000   0.000 -18.953
 total augmentation occupancy for first ion, spin component:           1
  7.054  -3.195   0.000   2.079   0.000   0.000   0.375   0.000
 -3.195   1.866   0.000  -1.596   0.000   0.000  -0.225   0.000
  0.000   0.000   0.828   0.000   0.000   0.058   0.000   0.000
  2.079  -1.596   0.000   2.231   0.000   0.000   0.207   0.000
  0.000   0.000   0.000   0.000   0.828   0.000   0.000   0.058
  0.000   0.000   0.058   0.000   0.000   0.004   0.000   0.000
  0.375  -0.225   0.000   0.207   0.000   0.000   0.028   0.000
  0.000   0.000   0.000   0.000   0.058   0.000   0.000   0.004


------------------------ aborting loop because EDIFF is reached ----------------------------------------


    FORLOC:  cpu time      0.0041: real time      0.0041
    FORNL :  cpu time      0.4170: real time      0.4177
    STRESS:  cpu time      1.4362: real time      1.4365
    FORCOR:  cpu time      0.3123: real time      0.3123
    OFIELD:  cpu time      0.0001: real time      0.0001

  FORCE on cell =-STRESS in cart. coord.  units (eV):
  Direction    XX          YY          ZZ          XY          YZ          ZX
  --------------------------------------------------------------------------------------
  Alpha Z   907.96410   907.96410   907.96410
  Ewald  157509.18896157509.18896************     0.00000     0.00000    -0.00000
  Hartree167890.51277167890.51277************    -0.00000    -0.00000    -0.00000
  E(xc)   -2568.25948 -2568.25948 -2568.92843    -0.00000    -0.00000    -0.00000
  Local  ************************334969.43182    -0.00000     0.00000    -0.00000
  n-local -2831.72225 -2832.50072 -2861.99182    -0.00000     0.00000     0.00001
  augment  1084.09736  1084.09736  1074.51806     0.00000     0.00000    -0.00000
  Kinetic  7519.20968  7521.67653  7536.15145    -0.00000    -0.00000    -0.00001
  Fock        0.00000     0.00000     0.00000     0.00000     0.00000     0.00000
  -------------------------------------------------------------------------------------
  Total      -8.82524    -8.82524    12.07585     0.00000     0.00000    -0.00000
  in kB      -9.30347    -9.30347    12.73023     0.00000     0.00000    -0.00000
  external pressure =       -1.96 kB  Pullay stress =        0.00 kB


 VOLUME and BASIS-vectors are now :
 -----------------------------------------------------------------------------
  energy-cutoff  :      600.00
  volume of cell :     1519.82
      direct lattice vectors                 reciprocal lattice vectors
     8.440984654  0.000000000  0.000000000     0.118469591  0.000000000  0.000000000
     0.000000000  8.440984654  0.000000000     0.000000000  0.118469591  0.000000000
     0.000000000  0.000000000 21.330738491     0.000000000  0.000000000  0.046880702

  length of vectors
     8.440984654  8.440984654 21.330738491     0.118469591  0.118469591  0.046880702


 FORCES acting on ions:
    Electron-Ion                     Ewald-Force                    Non-Local-Force
 -----------------------------------------------------------------------------------------------
   0.102E-12 0.943E-13 -.824E+03   0.622E-14 -.666E-14 0.797E+03   0.000E+00 0.265E-22 0.273E+02
   0.409E-12 0.673E-12 -.143E+04   0.266E-14 0.755E-14 0.149E+04   0.662E-23 0.000E+00 -.600E+02
   -.294E-13 -.123E+00 0.208E+04   0.560E-13 0.123E+00 -.207E+04   -.529E-22 -.164E-03 -.647E+01
   0.123E+00 0.820E-12 0.208E+04   -.123E+00 0.671E-13 -.207E+04   0.164E-03 0.529E-22 -.647E+01
   -.668E-13 0.609E-12 0.713E+03   -.150E-10 0.150E-10 -.713E+03   0.000E+00 0.000E+00 0.460E+00
   0.433E+00 -.433E+00 0.714E+03   -.429E+00 0.429E+00 -.714E+03   -.272E-02 0.272E-02 0.482E+00
   -.661E-13 -.274E+01 -.643E+03   0.157E-11 0.271E+01 0.643E+03   -.265E-22 0.209E-01 -.106E+00
   0.274E+01 -.286E-12 -.643E+03   -.271E+01 -.151E-11 0.643E+03   -.209E-01 0.529E-22 -.106E+00
   -.421E-13 0.249E-12 -.200E+04   0.444E-12 -.416E-12 0.200E+04   0.000E+00 0.000E+00 0.537E+01
   0.173E+02 -.173E+02 -.198E+04   -.174E+02 0.174E+02 0.198E+04   0.804E-01 -.804E-01 0.547E+01
   -.379E-13 0.123E+00 0.208E+04   -.277E-12 -.123E+00 -.207E+04   -.662E-23 0.164E-03 -.647E+01
   0.116E+00 0.166E-11 0.208E+04   -.114E+00 0.131E-10 -.207E+04   -.153E-02 -.265E-22 -.647E+01
   -.731E-13 0.173E-11 0.714E+03   -.165E-10 0.000E+00 -.714E+03   0.000E+00 0.397E-22 0.417E+00
   0.433E+00 0.433E+00 0.714E+03   -.429E+00 -.429E+00 -.714E+03   -.272E-02 -.272E-02 0.482E+00
   -.632E-13 0.274E+01 -.643E+03   0.304E-11 -.271E+01 0.643E+03   -.529E-22 -.209E-01 -.106E+00
   0.385E+01 0.121E-11 -.636E+03   -.378E+01 0.178E-14 0.637E+03   -.756E-01 0.529E-22 -.238E+00
   -.459E-13 0.919E-12 -.199E+04   -.355E-13 -.995E-13 0.198E+04   0.000E+00 -.265E-22 0.539E+01
   0.173E+02 0.173E+02 -.198E+04   -.174E+02 -.174E+02 0.198E+04   0.804E-01 0.804E-01 0.547E+01
   0.943E-12 -.116E+00 0.208E+04   -.129E-10 0.114E+00 -.207E+04   -.529E-22 0.153E-02 -.647E+01
   -.123E+00 0.887E-12 0.208E+04   0.123E+00 0.471E-13 -.207E+04   -.164E-03 0.529E-22 -.647E+01
   0.834E-12 -.370E-12 0.714E+03   0.145E-11 0.150E-10 -.714E+03   0.265E-22 0.000E+00 0.417E+00
   -.433E+00 -.433E+00 0.714E+03   0.429E+00 0.429E+00 -.714E+03   0.272E-02 0.272E-02 0.482E+00
   0.811E-12 -.385E+01 -.636E+03   -.141E-11 0.378E+01 0.637E+03   -.364E-22 0.756E-01 -.238E+00
   -.274E+01 -.269E-12 -.643E+03   0.271E+01 -.156E-11 0.643E+03   0.209E-01 -.529E-22 -.106E+00
   0.934E-12 -.151E-11 -.199E+04   0.782E-13 -.355E-14 0.198E+04   0.000E+00 0.662E-23 0.539E+01
   -.173E+02 -.173E+02 -.198E+04   0.174E+02 0.174E+02 0.198E+04   -.804E-01 -.804E-01 0.547E+01
   0.935E-12 0.116E+00 0.208E+04   -.131E-10 -.114E+00 -.207E+04   0.000E+00 -.153E-02 -.647E+01
   -.116E+00 0.116E-11 0.208E+04   0.114E+00 0.131E-10 -.207E+04   0.153E-02 0.000E+00 -.647E+01
   0.877E-12 0.264E-11 0.714E+03   -.782E-13 0.355E-14 -.714E+03   0.000E+00 0.000E+00 0.563E+00
   -.433E+00 0.433E+00 0.714E+03   0.429E+00 -.429E+00 -.714E+03   0.272E-02 -.272E-02 0.482E+00
   0.822E-12 0.385E+01 -.636E+03   -.284E-13 -.378E+01 0.637E+03   0.000E+00 -.756E-01 -.238E+00
   -.385E+01 -.155E-11 -.636E+03   0.378E+01 0.000E+00 0.637E+03   0.756E-01 -.265E-22 -.238E+00
   0.901E-12 0.569E-12 -.192E+04   -.426E-13 -.391E-13 0.192E+04   0.000E+00 0.000E+00 0.403E+01
   -.173E+02 0.173E+02 -.198E+04   0.174E+02 -.174E+02 0.198E+04   -.804E-01 0.804E-01 0.547E+01
   -.657E-13 -.383E+00 0.535E+03   0.409E-13 0.377E+00 -.534E+03   0.000E+00 0.842E-02 -.737E-01
   0.383E+00 0.175E-12 0.535E+03   -.377E+00 0.391E-13 -.534E+03   -.842E-02 -.662E-23 -.737E-01
   -.601E-13 -.135E-12 0.156E+04   0.853E-11 -.844E-11 -.156E+04   -.265E-22 0.000E+00 0.355E+01
   0.890E-01 -.890E-01 0.156E+04   -.882E-01 0.882E-01 -.156E+04   -.106E-02 0.106E-02 0.355E+01
   -.599E-13 -.712E+01 -.152E+04   -.871E-12 0.706E+01 0.153E+04   0.265E-22 0.590E-01 -.509E+01
   0.712E+01 0.202E-13 -.152E+04   -.706E+01 0.881E-12 0.153E+04   -.590E-01 -.159E-21 -.509E+01
   -.584E-13 -.315E-12 -.478E+03   -.853E-13 0.639E-13 0.478E+03   -.265E-22 0.000E+00 0.258E+00
   0.243E+01 -.243E+01 -.474E+03   -.242E+01 0.242E+01 0.473E+03   -.113E-01 0.113E-01 0.319E+00
   -.657E-13 0.383E+00 0.535E+03   0.142E-13 -.377E+00 -.534E+03   0.000E+00 -.842E-02 -.737E-01
   0.343E+00 0.734E-12 0.535E+03   -.370E+00 -.764E-11 -.535E+03   0.373E-01 -.397E-22 -.942E-01
   -.621E-13 0.451E-12 0.156E+04   0.845E-11 -.796E-12 -.156E+04   0.000E+00 0.000E+00 0.355E+01
   0.890E-01 0.890E-01 0.156E+04   -.882E-01 -.882E-01 -.156E+04   -.106E-02 -.106E-02 0.355E+01
   -.573E-13 0.712E+01 -.152E+04   -.774E-12 -.706E+01 0.153E+04   -.132E-22 -.590E-01 -.509E+01
   0.223E+02 0.849E-12 -.149E+04   -.220E+02 0.810E-11 0.150E+04   -.283E+00 -.794E-22 -.509E+01
   -.556E-13 0.596E-12 -.474E+03   -.741E-11 0.711E-14 0.473E+03   0.000E+00 0.000E+00 0.269E+00
   0.243E+01 0.243E+01 -.474E+03   -.242E+01 -.242E+01 0.473E+03   -.113E-01 -.113E-01 0.319E+00
   0.331E-12 -.343E+00 0.535E+03   0.764E-11 0.370E+00 -.535E+03   -.265E-22 -.373E-01 -.942E-01
   -.383E+00 0.131E-12 0.535E+03   0.377E+00 0.142E-13 -.534E+03   0.842E-02 0.149E-22 -.737E-01
   0.388E-12 -.498E-12 0.156E+04   0.845E-12 -.846E-11 -.156E+04   0.000E+00 0.000E+00 0.355E+01
   -.890E-01 -.890E-01 0.156E+04   0.882E-01 0.882E-01 -.156E+04   0.106E-02 0.106E-02 0.355E+01
   0.400E-12 -.223E+02 -.149E+04   -.816E-11 0.220E+02 0.150E+04   0.529E-22 0.283E+00 -.509E+01
   -.712E+01 0.404E-13 -.152E+04   0.706E+01 0.924E-12 0.153E+04   0.590E-01 -.529E-22 -.509E+01
   0.338E-12 0.182E-12 -.474E+03   -.711E-14 0.738E-11 0.473E+03   0.265E-22 0.000E+00 0.269E+00
   -.243E+01 -.243E+01 -.474E+03   0.242E+01 0.242E+01 0.473E+03   0.113E-01 0.113E-01 0.319E+00
   0.333E-12 0.343E+00 0.535E+03   0.763E-11 -.370E+00 -.535E+03   0.397E-22 0.373E-01 -.942E-01
   -.343E+00 0.169E-11 0.535E+03   0.370E+00 -.769E-11 -.535E+03   -.373E-01 -.529E-22 -.942E-01
   0.374E-12 0.970E-12 0.156E+04   0.824E-12 -.838E-12 -.156E+04   0.000E+00 -.106E-21 0.355E+01
   -.890E-01 0.890E-01 0.156E+04   0.882E-01 -.882E-01 -.156E+04   0.106E-02 -.106E-02 0.355E+01
   0.416E-12 0.223E+02 -.149E+04   -.820E-11 -.220E+02 0.150E+04   0.106E-21 -.283E+00 -.509E+01
   -.223E+02 -.180E-11 -.149E+04   0.220E+02 0.819E-11 0.150E+04   0.283E+00 0.000E+00 -.509E+01
   0.318E-12 0.225E-11 -.474E+03   -.497E-13 0.426E-13 0.474E+03   0.000E+00 -.132E-22 -.197E+00
   -.243E+01 0.243E+01 -.474E+03   0.242E+01 -.242E+01 0.473E+03   0.113E-01 -.113E-01 0.319E+00
 -----------------------------------------------------------------------------------------------
   0.265E-10 0.222E-10 0.511E+02   0.626E-13 -.126E-12 0.261E-11   0.121E-16 -.139E-16 -.511E+02


 POSITION                                       TOTAL-FORCE (eV/Angst)
 -----------------------------------------------------------------------------------
      4.22049      4.22049     16.37814         0.000000      0.000000      0.233379
      4.22049      4.22049     17.52496         0.000000      0.000000     -0.183131
      0.00000      6.33074      7.50000         0.000000     -0.000011      0.149426
      2.11025      0.00000      7.50000         0.000011      0.000000      0.149426
      0.00000      0.00000      9.61025         0.000000      0.000000      0.035850
      2.11025      6.33074      9.61025         0.001635     -0.001635      0.038617
      0.00000      6.33023     11.73368         0.000000     -0.001289      0.028597
      2.11076      0.00000     11.73368         0.001289      0.000000      0.028597
      0.00000      0.00000     13.83822         0.000000      0.000000      0.201626
      2.10905      6.33193     13.83447        -0.010260      0.010260      0.183784
      0.00000      2.11025      7.50000         0.000000      0.000011      0.149426
      2.11025      4.22049      7.50000         0.000681      0.000000      0.149484
      0.00000      4.22049      9.61025         0.000000      0.000000      0.046014
      2.11025      2.11025      9.61025         0.001635      0.001635      0.038617
      0.00000      2.11076     11.73368         0.000000      0.001289      0.028597
      2.11344      4.22049     11.73659        -0.007740      0.000000      0.037510
      0.00000      4.22049     13.83544         0.000000      0.000000      0.192702
      2.10905      2.10905     13.83447        -0.010260     -0.010260      0.183784
      4.22049      6.33074      7.50000         0.000000     -0.000681      0.149484
      6.33074      0.00000      7.50000        -0.000011      0.000000      0.149426
      4.22049      0.00000      9.61025         0.000000      0.000000      0.046014
      6.33074      6.33074      9.61025        -0.001635     -0.001635      0.038617
      4.22049      6.32754     11.73659         0.000000      0.007740      0.037510
      6.33023      0.00000     11.73368        -0.001289      0.000000      0.028597
      4.22049      0.00000     13.83544         0.000000      0.000000      0.192702
      6.33193      6.33193     13.83447         0.010260      0.010260      0.183784
      4.22049      2.11025      7.50000         0.000000      0.000681      0.149484
      6.33074      4.22049      7.50000        -0.000681      0.000000      0.149484
      4.22049      4.22049      9.61025         0.000000      0.000000      0.056140
      6.33074      2.11025      9.61025        -0.001635      0.001635      0.038617
      4.22049      2.11344     11.73659         0.000000     -0.007740      0.037510
      6.32754      4.22049     11.73659         0.007740      0.000000      0.037510
      4.22049      4.22049     13.87814         0.000000      0.000000      0.268335
      6.33193      2.10905     13.83447         0.010260     -0.010260      0.183784
      0.00000      6.33074      9.61025         0.000000      0.002468      0.071506
      2.11025      0.00000      9.61025        -0.002468      0.000000      0.071506
      0.00000      0.00000      7.50000         0.000000      0.000000     -0.561408
      2.11025      6.33074      7.50000        -0.000283      0.000283     -0.561166
      0.00000      6.33258     13.88587         0.000000     -0.001519      0.048951
      2.10840      0.00000     13.88587         0.001519      0.000000      0.048951
      0.00000      0.00000     11.72785         0.000000      0.000000      0.018487
      2.10979      6.33120     11.72890         0.002174     -0.002174      0.009444
      0.00000      2.11025      9.61025         0.000000     -0.002468      0.071506
      2.11025      4.22049      9.61025         0.009926      0.000000      0.080596
      0.00000      4.22049      7.50000         0.000000      0.000000     -0.561296
      2.11025      2.11025      7.50000        -0.000283     -0.000283     -0.561166
      0.00000      2.10840     13.88587         0.000000      0.001519      0.048951
      2.10031      4.22049     13.88381         0.005394      0.000000      0.039045
      0.00000      4.22049     11.72684         0.000000      0.000000      0.012232
      2.10979      2.10979     11.72890         0.002174      0.002174      0.009444
      4.22049      6.33074      9.61025         0.000000     -0.009926      0.080596
      6.33074      0.00000      9.61025         0.002468      0.000000      0.071506
      4.22049      0.00000      7.50000         0.000000      0.000000     -0.561296
      6.33074      6.33074      7.50000         0.000283      0.000283     -0.561166
      4.22049      6.34068     13.88381         0.000000     -0.005394      0.039045
      6.33258      0.00000     13.88587        -0.001519      0.000000      0.048951
      4.22049      0.00000     11.72684         0.000000      0.000000      0.012232
      6.33120      6.33120     11.72890        -0.002174     -0.002174      0.009444
      4.22049      2.11025      9.61025         0.000000      0.009926      0.080596
      6.33074      4.22049      9.61025        -0.009926      0.000000      0.080596
      4.22049      4.22049      7.50000         0.000000      0.000000     -0.561825
      6.33074      2.11025      7.50000         0.000283     -0.000283     -0.561166
      4.22049      2.10031     13.88381         0.000000      0.005394      0.039045
      6.34068      4.22049     13.88381        -0.005394      0.000000      0.039045
      4.22049      4.22049     11.73684         0.000000      0.000000      0.010074
      6.33120      2.10979     11.72890        -0.002174      0.002174      0.009444
 -----------------------------------------------------------------------------------
    total drift:                                0.000000      0.000000     -0.000203


--------------------------------------------------------------------------------------------------------



  FREE ENERGIE OF THE ION-ELECTRON SYSTEM (eV)
  ---------------------------------------------------
  free  energy   TOTEN  =      -239.03053590 eV

  energy  without entropy=     -239.03053590  energy(sigma->0) =     -239.03053590



--------------------------------------------------------------------------------------------------------


    POTLOK:  cpu time      0.4950: real time      0.4955


--------------------------------------------------------------------------------------------------------


     LOOP+:  cpu time     62.0149: real time     62.3624
    4ORBIT:  cpu time      0.0000: real time      0.0000

 total amount of memory used by VASP MPI-rank0    78528. kBytes
=======================================================================

   base      :      30000. kBytes
   nonl-proj :      29343. kBytes
   fftplans  :       3857. kBytes
   grid      :       5885. kBytes
   one-center:        137. kBytes
   wavefun   :       9306. kBytes

  
  
 General timing and accounting informations for this job:
 ========================================================
  
                  Total CPU time used (sec):       80.036
                            User time (sec):       78.060
                          System time (sec):        1.976
                         Elapsed time (sec):       84.947
  
                   Maximum memory used (kb):      270264.
                   Average memory used (kb):          N/A
  
                          Minor page faults:        32936
                          Major page faults:           51
                 Voluntary context switches:         6994
