 vasp.6.3.0 20Jan22 (build Apr  1 2022 16:44:48) complex                         
 executed on        HPECrayEX_GCC date 2022.09.24  18:10:45
 running  512 mpi-ranks, with    1 threads/rank
 distrk:  each k-point on  256 cores,    2 groups
 distr:  one band on NCORE=   4 cores,   64 groups


--------------------------------------------------------------------------------------------------------


 INCAR:
   SYSTEM = MgO-rocksalt
   ISMEAR = 0
   SIGMA = 0.05
   EDIFF = 1E-6
   ALGO = ALL
   ISTART = 0
   IBRION = 2
   NSW = 1000
   ISYM = 2
   ISIF = 2
   EDIFFG = -0.01
   DIPOL = 0.5 0.5 0.5
   IDIPOL = 3
   LDIPOL = .TRUE.
   GGA = PE
   IVDW = 1
   VDW_C6 = 0.63 0.70
   VDW_R0 = 1.243 1.342
   ENCUT = 600
   PREC = Normal
   LASPH = .TRUE.
   LREAL = .FALSE.
   ISPIN = 1
   NELM = 200
   NELMIN = 8
   NCORE = 4
   KPAR = 2
   LWAVE = .FALSE.
   LCHARG = .FALSE.

 POTCAR:    PAW_PBE Mg_pv 13Apr2007               
 POTCAR:    PAW_PBE O 08Apr2002                   
 POTCAR:    PAW_PBE Mg_pv 13Apr2007               
   SHA256 =  f474ac0dd33840b9ae76c01d57fea79fdf77cdfbb07d5ade72c65f83c709b62b Mg_pv/POTCAR          
   COPYR  = (c) Copyright 13Apr2007 Georg Kresse                                                    
   COPYR  = This file is part of the software VASP. Any use, copying, and all other rights are regul
   COPYR  = If you do not have a valid VASP license, you may not use, copy or distribute this file. 
   VRHFIN =Mg: p6s2                                                                                 
   LEXCH  = PE                                                                                      
   EATOM  =  1056.7344 eV,   77.6678 Ry                                                             
                                                                                                    
   TITEL  = PAW_PBE Mg_pv 13Apr2007                                                                 
   LULTRA =        F    use ultrasoft PP ?                                                          
   IUNSCR =        1    unscreen: 0-lin 1-nonlin 2-no                                               
   RPACOR =    1.500    partial core radius                                                         
   POMASS =   24.305; ZVAL   =    8.000    mass and valenz                                          
   RCORE  =    2.000    outmost cutoff radius                                                       
   RWIGS  =    2.000; RWIGS  =    1.058    wigner-seitz radius (au A)                               
   ENMAX  =  403.929; ENMIN  =  302.947 eV                                                          
   RCLOC  =    1.506    cutoff for local pot                                                        
   LCOR   =        T    correct aug charges                                                         
   LPAW   =        T    paw PP                                                                      
   EAUG   =  758.780                                                                                
   DEXC   =    0.000                                                                                
   RMAX   =    2.045    core radius for proj-oper                                                   
   RAUG   =    1.300    factor for augmentation sphere                                              
   RDEP   =    2.025    radius for radial grids                                                     
   RDEPT  =    1.557    core radius for aug-charge                                                  
                                                                                                    
   Atomic configuration                                                                             
    5 entries                                                                                       
     n  l   j            E        occ.                                                              
     1  0  0.50     -1259.6230   2.0000                                                             
     2  0  0.50       -79.8442   2.0000                                                             
     2  1  1.50       -46.6121   6.0000                                                             
     3  0  0.50        -4.7055   2.0000                                                             
     3  2  1.50        -1.3606   0.0000                                                             
   Description                                                                                      
     l       E           TYP  RCUT    TYP  RCUT                                                     
     1    -46.6121073     23  1.600                                                                 
     1      2.7211652     23  1.600                                                                 
     0     -4.7054661     23  2.000                                                                 
     0     61.2262170     23  2.000                                                                 
     2     -1.3605826     23  2.000                                                                 
  local pseudopotential read in
  partial core-charges read in
  partial kinetic energy density read in
  atomic valenz-charges read in
  non local Contribution for L=           1  read in
    real space projection operators read in
  non local Contribution for L=           1  read in
    real space projection operators read in
  non local Contribution for L=           0  read in
    real space projection operators read in
  non local Contribution for L=           0  read in
    real space projection operators read in
  non local Contribution for L=           2  read in
    real space projection operators read in
    PAW grid and wavefunctions read in

   number of l-projection  operators is LMAX  =           5
   number of lm-projection operators is LMMAX =          13

 POTCAR:    PAW_PBE O 08Apr2002                   
   SHA256 =  818f92134a0a090dccd8ba1447fa70422a3b330e708bb4f08108d8ae51209ddf O/POTCAR              
   COPYR  = (c) Copyright 08Apr2002 Georg Kresse                                                    
   COPYR  = This file is part of the software VASP. Any use, copying, and all other rights are regul
   COPYR  = If you do not have a valid VASP license, you may not use, copy or distribute this file. 
   VRHFIN =O: s2p4                                                                                  
   LEXCH  = PE                                                                                      
   EATOM  =   432.3788 eV,   31.7789 Ry                                                             
                                                                                                    
   TITEL  = PAW_PBE O 08Apr2002                                                                     
   LULTRA =        F    use ultrasoft PP ?                                                          
   IUNSCR =        1    unscreen: 0-lin 1-nonlin 2-no                                               
   RPACOR =    1.200    partial core radius                                                         
   POMASS =   16.000; ZVAL   =    6.000    mass and valenz                                          
   RCORE  =    1.520    outmost cutoff radius                                                       
   RWIGS  =    1.550; RWIGS  =    0.820    wigner-seitz radius (au A)                               
   ENMAX  =  400.000; ENMIN  =  300.000 eV                                                          
   ICORE  =        2    local potential                                                             
   LCOR   =        T    correct aug charges                                                         
   LPAW   =        T    paw PP                                                                      
   EAUG   =  605.392                                                                                
   DEXC   =    0.000                                                                                
   RMAX   =    1.553    core radius for proj-oper                                                   
   RAUG   =    1.300    factor for augmentation sphere                                              
   RDEP   =    1.550    radius for radial grids                                                     
   RDEPT  =    1.329    core radius for aug-charge                                                  
                                                                                                    
   Atomic configuration                                                                             
    4 entries                                                                                       
     n  l   j            E        occ.                                                              
     1  0  0.50      -514.6923   2.0000                                                             
     2  0  0.50       -23.9615   2.0000                                                             
     2  1  0.50        -9.0305   4.0000                                                             
     3  2  1.50        -9.5241   0.0000                                                             
   Description                                                                                      
     l       E           TYP  RCUT    TYP  RCUT                                                     
     0    -23.9615318     23  1.200                                                                 
     0     -9.5240782     23  1.200                                                                 
     1     -9.0304911     23  1.520                                                                 
     1      8.1634956     23  1.520                                                                 
     2     -9.5240782      7  1.500                                                                 
  local pseudopotential read in
  partial core-charges read in
  partial kinetic energy density read in
  kinetic energy density of atom read in
  atomic valenz-charges read in
  non local Contribution for L=           0  read in
    real space projection operators read in
  non local Contribution for L=           0  read in
    real space projection operators read in
  non local Contribution for L=           1  read in
    real space projection operators read in
  non local Contribution for L=           1  read in
    real space projection operators read in
    PAW grid and wavefunctions read in

   number of l-projection  operators is LMAX  =           4
   number of lm-projection operators is LMMAX =           8

 -----------------------------------------------------------------------------
|                                                                             |
|               ----> ADVICE to this user running VASP <----                  |
|                                                                             |
|     You have a (more or less) 'large supercell' and for larger cells it     |
|     might be more efficient to use real-space projection operators.         |
|     Therefore, try LREAL= Auto in the INCAR file.                           |
|     Mind: For very accurate calculation, you might also keep the            |
|     reciprocal projection scheme (i.e. LREAL=.FALSE.).                      |
|                                                                             |
 -----------------------------------------------------------------------------

  PAW_PBE Mg_pv 13Apr2007               :
 energy of atom  1       EATOM=-1056.7344
 kinetic energy error for atom=    0.0221 (will be added to EATOM!!)
  PAW_PBE O 08Apr2002                   :
 energy of atom  2       EATOM= -432.3788
 kinetic energy error for atom=    0.0168 (will be added to EATOM!!)


 POSCAR: Mg  O
  positions in direct lattice
  No initial velocities read in
 exchange correlation table for  LEXCH =        8
   RHO(1)=    0.500       N(1)  =     2000
   RHO(2)=  100.500       N(2)  =     4000



--------------------------------------------------------------------------------------------------------


 ion  position               nearest neighbor table
   1  0.250  0.000  0.351-  33 2.12  35 2.12  36 2.12  43 2.12  52 2.12
   2  0.500  0.250  0.351-  34 2.12  35 2.12  36 2.12  44 2.12  51 2.12
   3  0.250  0.250  0.450-  35 2.12  34 2.12  33 2.12  41 2.12  50 2.12  39 2.12
   4  0.500  0.000  0.450-  36 2.12  34 2.12  33 2.12  42 2.12  49 2.12  40 2.12
   5  0.250  0.000  0.550-  37 2.12  39 2.12  40 2.12  47 2.12  56 2.12  33 2.12
   6  0.500  0.250  0.550-  38 2.12  39 2.12  40 2.12  48 2.12  55 2.12  34 2.12
   7  0.250  0.250  0.649-  39 2.12  38 2.12  37 2.12  45 2.12  54 2.12
   8  0.500  0.000  0.649-  40 2.12  38 2.12  37 2.12  46 2.12  53 2.12
   9  0.250  0.500  0.351-  41 2.12  35 2.12  43 2.12  44 2.12  60 2.12
  10  0.500  0.750  0.351-  42 2.12  36 2.12  43 2.12  44 2.12  59 2.12
  11  0.250  0.750  0.450-  43 2.12  41 2.12  42 2.12  33 2.12  58 2.12  47 2.12
  12  0.500  0.500  0.450-  44 2.12  41 2.12  42 2.12  34 2.12  57 2.12  48 2.12
  13  0.250  0.500  0.550-  45 2.12  39 2.12  47 2.12  48 2.12  64 2.12  41 2.12
  14  0.500  0.750  0.550-  46 2.12  40 2.12  47 2.12  48 2.12  63 2.12  42 2.12
  15  0.250  0.750  0.649-  47 2.12  45 2.12  46 2.12  37 2.12  62 2.12
  16  0.500  0.500  0.649-  48 2.12  45 2.12  46 2.12  38 2.12  61 2.12
  17  0.750  0.000  0.351-  49 2.12  36 2.12  51 2.12  52 2.12  59 2.12
  18  0.000  0.250  0.351-  50 2.12  35 2.12  51 2.12  52 2.12  60 2.12
  19  0.750  0.250  0.450-  51 2.12  49 2.12  50 2.12  34 2.12  57 2.12  55 2.12
  20  0.000  0.000  0.450-  52 2.12  49 2.12  50 2.12  33 2.12  58 2.12  56 2.12
  21  0.750  0.000  0.550-  53 2.12  40 2.12  55 2.12  56 2.12  63 2.12  49 2.12
  22  0.000  0.250  0.550-  54 2.12  39 2.12  55 2.12  56 2.12  64 2.12  50 2.12
  23  0.750  0.250  0.649-  55 2.12  53 2.12  54 2.12  38 2.12  61 2.12
  24  0.000  0.000  0.649-  56 2.12  53 2.12  54 2.12  37 2.12  62 2.12
  25  0.750  0.500  0.351-  57 2.12  51 2.12  44 2.12  59 2.12  60 2.12
  26  0.000  0.750  0.351-  58 2.12  52 2.12  43 2.12  59 2.12  60 2.12
  27  0.750  0.750  0.450-  59 2.12  49 2.12  57 2.12  58 2.12  42 2.12  63 2.12
  28  0.000  0.500  0.450-  60 2.12  50 2.12  57 2.12  58 2.12  41 2.12  64 2.12
  29  0.750  0.500  0.550-  61 2.12  55 2.12  48 2.12  63 2.12  64 2.12  57 2.12
  30  0.000  0.750  0.550-  62 2.12  56 2.12  47 2.12  63 2.12  64 2.12  58 2.12
  31  0.750  0.750  0.649-  63 2.12  53 2.12  61 2.12  62 2.12  46 2.12
  32  0.000  0.500  0.649-  64 2.12  54 2.12  61 2.12  62 2.12  45 2.12
  33  0.250  0.000  0.450-   1 2.12   3 2.12   4 2.12  11 2.12  20 2.12   5 2.12
  34  0.500  0.250  0.450-   2 2.12   3 2.12   4 2.12  12 2.12  19 2.12   6 2.12
  35  0.250  0.250  0.351-   3 2.12   2 2.12   1 2.12   9 2.12  18 2.12
  36  0.500  0.000  0.351-   4 2.12   2 2.12   1 2.12  10 2.12  17 2.12
  37  0.250  0.000  0.649-   5 2.12   7 2.12   8 2.12  15 2.12  24 2.12
  38  0.500  0.250  0.649-   6 2.12   7 2.12   8 2.12  16 2.12  23 2.12
  39  0.250  0.250  0.550-   7 2.12   6 2.12   5 2.12  13 2.12  22 2.12   3 2.12
  40  0.500  0.000  0.550-   8 2.12   6 2.12   5 2.12  14 2.12  21 2.12   4 2.12
  41  0.250  0.500  0.450-   9 2.12   3 2.12  11 2.12  12 2.12  28 2.12  13 2.12
  42  0.500  0.750  0.450-  10 2.12   4 2.12  11 2.12  12 2.12  27 2.12  14 2.12
  43  0.250  0.750  0.351-  11 2.12   9 2.12  10 2.12   1 2.12  26 2.12
  44  0.500  0.500  0.351-  12 2.12   9 2.12  10 2.12   2 2.12  25 2.12
  45  0.250  0.500  0.649-  13 2.12   7 2.12  15 2.12  16 2.12  32 2.12
  46  0.500  0.750  0.649-  14 2.12   8 2.12  15 2.12  16 2.12  31 2.12
  47  0.250  0.750  0.550-  15 2.12  13 2.12  14 2.12   5 2.12  30 2.12  11 2.12
  48  0.500  0.500  0.550-  16 2.12  13 2.12  14 2.12   6 2.12  29 2.12  12 2.12
  49  0.750  0.000  0.450-  17 2.12   4 2.12  19 2.12  20 2.12  27 2.12  21 2.12
  50  0.000  0.250  0.450-  18 2.12   3 2.12  19 2.12  20 2.12  28 2.12  22 2.12
  51  0.750  0.250  0.351-  19 2.12  17 2.12  18 2.12   2 2.12  25 2.12
  52  0.000  0.000  0.351-  20 2.12  17 2.12  18 2.12   1 2.12  26 2.12
  53  0.750  0.000  0.649-  21 2.12   8 2.12  23 2.12  24 2.12  31 2.12
  54  0.000  0.250  0.649-  22 2.12   7 2.12  23 2.12  24 2.12  32 2.12
  55  0.750  0.250  0.550-  23 2.12  21 2.12  22 2.12   6 2.12  29 2.12  19 2.12
  56  0.000  0.000  0.550-  24 2.12  21 2.12  22 2.12   5 2.12  30 2.12  20 2.12
  57  0.750  0.500  0.450-  25 2.12  19 2.12  12 2.12  27 2.12  28 2.12  29 2.12
  58  0.000  0.750  0.450-  26 2.12  20 2.12  11 2.12  27 2.12  28 2.12  30 2.12
  59  0.750  0.750  0.351-  27 2.12  17 2.12  25 2.12  26 2.12  10 2.12
  60  0.000  0.500  0.351-  28 2.12  18 2.12  25 2.12  26 2.12   9 2.12
  61  0.750  0.500  0.649-  29 2.12  23 2.12  16 2.12  31 2.12  32 2.12
  62  0.000  0.750  0.649-  30 2.12  24 2.12  15 2.12  31 2.12  32 2.12
  63  0.750  0.750  0.550-  31 2.12  21 2.12  29 2.12  30 2.12  14 2.12  27 2.12
  64  0.000  0.500  0.550-  32 2.12  22 2.12  29 2.12  30 2.12  13 2.12  28 2.12

  LATTYP: Found a simple tetragonal cell.
 ALAT       =     8.4671426306
 C/A-ratio  =     2.5215539532
  
  Lattice vectors:
  
 A1 = (   8.4671426306,   0.0000000000,   0.0000000000)
 A2 = (   0.0000000000,   8.4671426306,   0.0000000000)
 A3 = (   0.0000000000,   0.0000000000,  21.3503569730)


Analysis of symmetry for initial positions (statically):
=====================================================================
 Subroutine PRICEL returns following result:
 
  LATTYP: Found a simple tetragonal cell.
 ALAT       =     2.9935869857
 C/A-ratio  =     7.1320315979
  
  Lattice vectors:
  
 A1 = (   2.1167856577,  -2.1167856577,   0.0000000000)
 A2 = (   2.1167856577,   2.1167856577,   0.0000000000)
 A3 = (   0.0000000000,   0.0000000000,  21.3503569730)
 
   8 primitive cells build up your supercell.
 

 Routine SETGRP: Setting up the symmetry group for a 
 simple tetragonal supercell.


 Subroutine GETGRP returns: Found 16 space group operations
 (whereof  8 operations were pure point group operations)
 out of a pool of 16 trial point group operations.


The static configuration has the point symmetry C_4v.
 The point group associated with its full space group is D_4h.


Analysis of symmetry for dynamics (positions and initial velocities):
=====================================================================
 Subroutine PRICEL returns following result:
 
  LATTYP: Found a simple tetragonal cell.
 ALAT       =     2.9935869857
 C/A-ratio  =     7.1320315979
  
  Lattice vectors:
  
 A1 = (   2.1167856577,  -2.1167856577,   0.0000000000)
 A2 = (   2.1167856577,   2.1167856577,   0.0000000000)
 A3 = (   0.0000000000,   0.0000000000,  21.3503569730)
 
   8 primitive cells build up your supercell.
 

 Routine SETGRP: Setting up the symmetry group for a 
 simple tetragonal supercell.


 Subroutine GETGRP returns: Found 16 space group operations
 (whereof  8 operations were pure point group operations)
 out of a pool of 16 trial point group operations.


The dynamic configuration has the point symmetry C_4v.
 The point group associated with its full space group is D_4h.


Analysis of constrained symmetry for selective dynamics:
=====================================================================
 Subroutine PRICEL returns following result:
 
  LATTYP: Found a simple tetragonal cell.
 ALAT       =     2.9935869857
 C/A-ratio  =     7.1320315979
  
  Lattice vectors:
  
 A1 = (   2.1167856577,  -2.1167856577,   0.0000000000)
 A2 = (   2.1167856577,   2.1167856577,   0.0000000000)
 A3 = (   0.0000000000,   0.0000000000,  21.3503569730)
 
   8 primitive cells build up your supercell.
 

 Routine SETGRP: Setting up the symmetry group for a 
 simple tetragonal supercell.


 Subroutine GETGRP returns: Found  8 space group operations
 (whereof  8 operations were pure point group operations)
 out of a pool of 16 trial point group operations.


The constrained configuration has the point symmetry C_4v.


 Subroutine INISYM returns: Found  8 space group operations
 (whereof  8 operations are pure point group operations),
 and found     8 'primitive' translations


----------------------------------------------------------------------------------------

                                     Primitive cell                                     

  volume of cell :     191.3326

  direct lattice vectors                    reciprocal lattice vectors
     2.116785658 -2.116785658  0.000000000     0.236207194 -0.236207194  0.000000000
     2.116785658  2.116785658  0.000000000     0.236207194  0.236207194 -0.000000000
     0.000000000  0.000000000 21.350356973    -0.000000000  0.000000000  0.046837624

  length of vectors
     2.993586986  2.993586986 21.350356973     0.334047417  0.334047417  0.046837624

  position of ions in fractional coordinates (direct lattice)
     0.500000000  0.500000000  0.351282183
     0.000000000  0.000000000  0.450427394
     0.500000000  0.500000000  0.549572606
     0.000000000  0.000000000  0.648717817
     0.500000000  0.500000000  0.450427394
     0.000000000  0.000000000  0.351282183
     0.500000000  0.500000000  0.648717817
     0.000000000  0.000000000  0.549572606

  ion indices of the primitive-cell ions
   primitive index   ion index
                 1           1
                 2           3
                 3           5
                 4           7
                 5          33
                 6          35
                 7          37
                 8          39

----------------------------------------------------------------------------------------



 KPOINTS: pymatgen v2020.8.13 with grid density = 

Automatic generation of k-mesh.
 Grid dimensions read from file:
 generate k-points for:    2    2    1

 Generating k-lattice:

  Cartesian coordinates                     Fractional coordinates (reciprocal lattice)
     0.059051798  0.000000000  0.000000000     0.500000000  0.000000000  0.000000000
     0.000000000  0.059051798  0.000000000     0.000000000  0.500000000  0.000000000
     0.000000000  0.000000000  0.046837624     0.000000000  0.000000000  1.000000000

  Length of vectors
     0.059051798  0.059051798  0.046837624

  Shift w.r.t. Gamma in fractional coordinates (k-lattice)
     0.000000000  0.000000000  0.000000000

 
 Subroutine IBZKPT returns following result:
 ===========================================
 
 Found      3 irreducible k-points:
 
 Following reciprocal coordinates:
            Coordinates               Weight
  0.000000  0.000000  0.000000      1.000000
  0.500000  0.000000  0.000000      2.000000
  0.500000  0.500000  0.000000      1.000000
 
 Following cartesian coordinates:
            Coordinates               Weight
  0.000000  0.000000  0.000000      1.000000
  0.059052  0.000000  0.000000      2.000000
  0.059052  0.059052  0.000000      1.000000
 


--------------------------------------------------------------------------------------------------------




 Dimension of arrays:
   k-points           NKPTS =      3   k-points in BZ     NKDIM =      3   number of bands    NBANDS=    320
   number of dos      NEDOS =    301   number of ions     NIONS =     64
   non local maximal  LDIM  =      5   non local SUM 2l+1 LMDIM =     13
   total plane-waves  NPLWV = 373248
   max r-space proj   IRMAX =      1   max aug-charges    IRDMAX=   5005
   dimension x,y,z NGX =    54 NGY =   54 NGZ =  128
   dimension x,y,z NGXF=   108 NGYF=  108 NGZF=  256
   support grid    NGXF=   108 NGYF=  108 NGZF=  256
   ions per type =              32  32
   NGX,Y,Z   is equivalent  to a cutoff of  10.60, 10.60,  9.97 a.u.
   NGXF,Y,Z  is equivalent  to a cutoff of  21.20, 21.20, 19.93 a.u.

 SYSTEM =  MgO-rocksalt                            
 POSCAR =  Mg  O                                   

 Startparameter for this run:
   NWRITE =      2    write-flag & timer
   PREC   = normal    normal or accurate (medium, high low for compatibility)
   ISTART =      0    job   : 0-new  1-cont  2-samecut
   ICHARG =      2    charge: 1-file 2-atom 10-const
   ISPIN  =      1    spin polarized calculation?
   LNONCOLLINEAR =      F non collinear calculations
   LSORBIT =      F    spin-orbit coupling
   INIWAV =      1    electr: 0-lowe 1-rand  2-diag
   LASPH  =      T    aspherical Exc in radial PAW
 Electronic Relaxation 1
   ENCUT  =  600.0 eV  44.10 Ry    6.64 a.u.  16.91 16.91 42.64*2*pi/ulx,y,z
   ENINI  =  600.0     initial cutoff
   ENAUG  =  758.8 eV  augmentation charge cutoff
   NELM   =    200;   NELMIN=  8; NELMDL= -5     # of ELM steps 
   EDIFF  = 0.1E-05   stopping-criterion for ELM
   LREAL  =      F    real-space projection
   NLSPLINE    = F    spline interpolate recip. space projectors
   LCOMPAT=      F    compatible to vasp.4.4
   GGA_COMPAT  = T    GGA compatible to vasp.4.4-vasp.4.6
   LMAXPAW     = -100 max onsite density
   LMAXMIX     =    2 max onsite mixed and CHGCAR
   VOSKOWN=      0    Vosko Wilk Nusair interpolation
   ROPT   =    0.00000   0.00000
 Ionic relaxation
   EDIFFG = -.1E-01   stopping-criterion for IOM
   NSW    =   1000    number of steps for IOM
   NBLOCK =      1;   KBLOCK =   1000    inner block; outer block 
   IBRION =      2    ionic relax: 0-MD 1-quasi-New 2-CG
   NFREE  =      1    steps in history (QN), initial steepest desc. (CG)
   ISIF   =      2    stress and relaxation
   IWAVPR =     11    prediction:  0-non 1-charg 2-wave 3-comb
   ISYM   =      2    0-nonsym 1-usesym 2-fastsym
   LCORR  =      T    Harris-Foulkes like correction to forces

   POTIM  = 0.5000    time-step for ionic-motion
   TEIN   =    0.0    initial temperature
   TEBEG  =    0.0;   TEEND  =   0.0 temperature during run
   SMASS  =  -3.00    Nose mass-parameter (am)
   estimated Nose-frequenzy (Omega)   =  0.10E-29 period in steps = 0.13E+47 mass=  -0.164E-26a.u.
   SCALEE = 1.0000    scale energy and forces
   NPACO  =    256;   APACO  = 10.0  distance and # of slots for P.C.
   PSTRESS=    0.0 pullay stress

  Mass of Ions in am
   POMASS =  24.30 16.00
  Ionic Valenz
   ZVAL   =   8.00  6.00
  Atomic Wigner-Seitz radii
   RWIGS  =  -1.00 -1.00
  virtual crystal weights 
   VCA    =   1.00  1.00
   NELECT =     448.0000    total number of electrons
   NUPDOWN=      -1.0000    fix difference up-down

 DOS related values:
   EMIN   =  10.00;   EMAX   =-10.00  energy-range for DOS
   EFERMI =   0.00
   ISMEAR =     0;   SIGMA  =   0.05  broadening in eV -4-tet -1-fermi 0-gaus

 Electronic relaxation 2 (details)
   IALGO  =     58    algorithm
   LDIAG  =      T    sub-space diagonalisation (order eigenvalues)
   LSUBROT=      F    optimize rotation matrix (better conditioning)
   TURBO    =      0    0=normal 1=particle mesh
   IRESTART =      0    0=no restart 2=restart with 2 vectors
   NREBOOT  =      0    no. of reboots
   NMIN     =      0    reboot dimension
   EREF     =   0.00    reference energy to select bands
   IMIX   =      4    mixing-type and parameters
     AMIX     =   0.40;   BMIX     =  1.00
     AMIX_MAG =   1.60;   BMIX_MAG =  1.00
     AMIN     =   0.10
     WC   =   100.;   INIMIX=   1;  MIXPRE=   1;  MAXMIX= -45

 Intra band minimization:
   WEIMIN = 0.0010     energy-eigenvalue tresh-hold
   EBREAK =  0.78E-09  absolut break condition
   DEPER  =   0.30     relativ break condition  

   TIME   =   0.40     timestep for ELM

  volume/ion in A,a.u.               =      23.92       161.40
  Fermi-wavevector in a.u.,A,eV,Ry     =   1.086946  2.054030 16.074618  1.181451
  Thomas-Fermi vector in A             =   2.223094

 Write flags
   LWAVE        =      F    write WAVECAR
   LDOWNSAMPLE  =      F    k-point downsampling of WAVECAR
   LCHARG       =      F    write CHGCAR
   LVTOT        =      F    write LOCPOT, total local potential
   LVHAR        =      F    write LOCPOT, Hartree potential only
   LELF         =      F    write electronic localiz. function (ELF)
   LORBIT       =      0    0 simple, 1 ext, 2 COOP (PROOUT), +10 PAW based schemes


 Dipole corrections
   LMONO  =      F    monopole corrections only (constant potential shift)
   LDIPOL =      T    correct potential (dipole corrections)
   IDIPOL =      3    1-x, 2-y, 3-z, 4-all directions 
   EPSILON=  1.0000000 bulk dielectric constant

 Exchange correlation treatment:
   GGA     =    PE    GGA type
   LEXCH   =     8    internal setting for exchange type
   LIBXC   =     F    Libxc                    
   VOSKOWN =     0    Vosko Wilk Nusair interpolation
   LHFCALC =     F    Hartree Fock is set to
   LHFONE  =     F    Hartree Fock one center treatment
   AEXX    =    0.0000 exact exchange contribution

 Linear response parameters
   LEPSILON=     F    determine dielectric tensor
   LRPA    =     F    only Hartree local field effects (RPA)
   LNABLA  =     F    use nabla operator in PAW spheres
   LVEL    =     F    velocity operator in full k-point grid
   CSHIFT  =0.1000    complex shift for real part using Kramers Kronig
   OMEGAMAX=  -1.0    maximum frequency
   DEG_THRESHOLD= 0.2000000E-02 threshold for treating states as degnerate
   RTIME   =   -0.100 relaxation time in fs
  (WPLASMAI=    0.000 imaginary part of plasma frequency in eV, 0.658/RTIME)
   DFIELD  = 0.0000000 0.0000000 0.0000000 field for delta impulse in time

  Optional k-point grid parameters
   LKPOINTS_OPT  =     F    use optional k-point grid
   KPOINTS_OPT_MODE=     1    mode for optional k-point grid

 Orbital magnetization related:
   ORBITALMAG=     F  switch on orbital magnetization
   LCHIMAG   =     F  perturbation theory with respect to B field
   DQ        =  0.001000  dq finite difference perturbation B field
   LLRAUG    =     F  two centre corrections for induced B field



--------------------------------------------------------------------------------------------------------


 conjugate gradient relaxation of ions
   using selective dynamics as specified on POSCAR
 charge density and potential will be updated during run
 non-spin polarized calculation
 Conjugate gradient for all bands (Freysoldt, et al. PRB 79, 241103 (2009))
 preconditioned conjugated gradient                                        
 perform sub-space diagonalisation
    before iterative eigenvector-optimisation
 modified Broyden-mixing scheme, WC =      100.0
 initial mixing is a Kerker type mixing with AMIX =  0.4000 and BMIX =      1.0000
 Hartree-type preconditioning will be used
 using additional bands           96
 reciprocal scheme for non local part
 use partial core corrections
 no Harris-corrections to forces 
 use gradient corrections 
 use of overlap-Matrix (Vanderbilt PP)
 Gauss-broadening in eV      SIGMA  =   0.05


--------------------------------------------------------------------------------------------------------


  energy-cutoff  :      600.00
  volume of cell :     1530.66
      direct lattice vectors                 reciprocal lattice vectors
     8.467142631  0.000000000  0.000000000     0.118103597  0.000000000  0.000000000
     0.000000000  8.467142631  0.000000000     0.000000000  0.118103597  0.000000000
     0.000000000  0.000000000 21.350356973     0.000000000  0.000000000  0.046837624

  length of vectors
     8.467142631  8.467142631 21.350356973     0.118103597  0.118103597  0.046837624



 k-points in units of 2pi/SCALE and weight: pymatgen v2020.8.13 with grid density = 
   0.00000000  0.00000000  0.00000000       0.250
   0.05905180  0.00000000  0.00000000       0.500
   0.05905180  0.05905180  0.00000000       0.250

 k-points in reciprocal lattice and weights: pymatgen v2020.8.13 with grid density = 
   0.00000000  0.00000000  0.00000000       0.250
   0.50000000  0.00000000  0.00000000       0.500
   0.50000000  0.50000000  0.00000000       0.250

 position of ions in fractional coordinates (direct lattice) 
   0.25000000  0.00000000  0.35128218
   0.50000000  0.25000000  0.35128218
   0.25000000  0.25000000  0.45042739
   0.50000000  0.00000000  0.45042739
   0.25000000  0.00000000  0.54957261
   0.50000000  0.25000000  0.54957261
   0.25000000  0.25000000  0.64871782
   0.50000000  0.00000000  0.64871782
   0.25000000  0.50000000  0.35128218
   0.50000000  0.75000000  0.35128218
   0.25000000  0.75000000  0.45042739
   0.50000000  0.50000000  0.45042739
   0.25000000  0.50000000  0.54957261
   0.50000000  0.75000000  0.54957261
   0.25000000  0.75000000  0.64871782
   0.50000000  0.50000000  0.64871782
   0.75000000  0.00000000  0.35128218
   0.00000000  0.25000000  0.35128218
   0.75000000  0.25000000  0.45042739
   0.00000000  0.00000000  0.45042739
   0.75000000  0.00000000  0.54957261
   0.00000000  0.25000000  0.54957261
   0.75000000  0.25000000  0.64871782
   0.00000000  0.00000000  0.64871782
   0.75000000  0.50000000  0.35128218
   0.00000000  0.75000000  0.35128218
   0.75000000  0.75000000  0.45042739
   0.00000000  0.50000000  0.45042739
   0.75000000  0.50000000  0.54957261
   0.00000000  0.75000000  0.54957261
   0.75000000  0.75000000  0.64871782
   0.00000000  0.50000000  0.64871782
   0.25000000  0.00000000  0.45042739
   0.50000000  0.25000000  0.45042739
   0.25000000  0.25000000  0.35128218
   0.50000000  0.00000000  0.35128218
   0.25000000  0.00000000  0.64871782
   0.50000000  0.25000000  0.64871782
   0.25000000  0.25000000  0.54957261
   0.50000000  0.00000000  0.54957261
   0.25000000  0.50000000  0.45042739
   0.50000000  0.75000000  0.45042739
   0.25000000  0.75000000  0.35128218
   0.50000000  0.50000000  0.35128218
   0.25000000  0.50000000  0.64871782
   0.50000000  0.75000000  0.64871782
   0.25000000  0.75000000  0.54957261
   0.50000000  0.50000000  0.54957261
   0.75000000  0.00000000  0.45042739
   0.00000000  0.25000000  0.45042739
   0.75000000  0.25000000  0.35128218
   0.00000000  0.00000000  0.35128218
   0.75000000  0.00000000  0.64871782
   0.00000000  0.25000000  0.64871782
   0.75000000  0.25000000  0.54957261
   0.00000000  0.00000000  0.54957261
   0.75000000  0.50000000  0.45042739
   0.00000000  0.75000000  0.45042739
   0.75000000  0.75000000  0.35128218
   0.00000000  0.50000000  0.35128218
   0.75000000  0.50000000  0.64871782
   0.00000000  0.75000000  0.64871782
   0.75000000  0.75000000  0.54957261
   0.00000000  0.50000000  0.54957261

 position of ions in cartesian coordinates  (Angst):
   2.11678566  0.00000000  7.50000000
   4.23357132  2.11678566  7.50000000
   2.11678566  2.11678566  9.61678566
   4.23357132  0.00000000  9.61678566
   2.11678566  0.00000000 11.73357132
   4.23357132  2.11678566 11.73357132
   2.11678566  2.11678566 13.85035697
   4.23357132  0.00000000 13.85035697
   2.11678566  4.23357132  7.50000000
   4.23357132  6.35035697  7.50000000
   2.11678566  6.35035697  9.61678566
   4.23357132  4.23357132  9.61678566
   2.11678566  4.23357132 11.73357132
   4.23357132  6.35035697 11.73357132
   2.11678566  6.35035697 13.85035697
   4.23357132  4.23357132 13.85035697
   6.35035697  0.00000000  7.50000000
   0.00000000  2.11678566  7.50000000
   6.35035697  2.11678566  9.61678566
   0.00000000  0.00000000  9.61678566
   6.35035697  0.00000000 11.73357132
   0.00000000  2.11678566 11.73357132
   6.35035697  2.11678566 13.85035697
   0.00000000  0.00000000 13.85035697
   6.35035697  4.23357132  7.50000000
   0.00000000  6.35035697  7.50000000
   6.35035697  6.35035697  9.61678566
   0.00000000  4.23357132  9.61678566
   6.35035697  4.23357132 11.73357132
   0.00000000  6.35035697 11.73357132
   6.35035697  6.35035697 13.85035697
   0.00000000  4.23357132 13.85035697
   2.11678566  0.00000000  9.61678566
   4.23357132  2.11678566  9.61678566
   2.11678566  2.11678566  7.50000000
   4.23357132  0.00000000  7.50000000
   2.11678566  0.00000000 13.85035697
   4.23357132  2.11678566 13.85035697
   2.11678566  2.11678566 11.73357132
   4.23357132  0.00000000 11.73357132
   2.11678566  4.23357132  9.61678566
   4.23357132  6.35035697  9.61678566
   2.11678566  6.35035697  7.50000000
   4.23357132  4.23357132  7.50000000
   2.11678566  4.23357132 13.85035697
   4.23357132  6.35035697 13.85035697
   2.11678566  6.35035697 11.73357132
   4.23357132  4.23357132 11.73357132
   6.35035697  0.00000000  9.61678566
   0.00000000  2.11678566  9.61678566
   6.35035697  2.11678566  7.50000000
   0.00000000  0.00000000  7.50000000
   6.35035697  0.00000000 13.85035697
   0.00000000  2.11678566 13.85035697
   6.35035697  2.11678566 11.73357132
   0.00000000  0.00000000 11.73357132
   6.35035697  4.23357132  9.61678566
   0.00000000  6.35035697  9.61678566
   6.35035697  6.35035697  7.50000000
   0.00000000  4.23357132  7.50000000
   6.35035697  4.23357132 13.85035697
   0.00000000  6.35035697 13.85035697
   6.35035697  6.35035697 11.73357132
   0.00000000  4.23357132 11.73357132



--------------------------------------------------------------------------------------------------------


 k-point   1 :   0.0000 0.0000 0.0000  plane waves:   50993
 k-point   2 :   0.5000 0.0000 0.0000  plane waves:   51062
 k-point   3 :   0.5000 0.5000 0.0000  plane waves:   51224

 maximum and minimum number of plane-waves per node :     12808    12734

 maximum number of plane-waves:     51224
 maximum index in each direction: 
   IXMAX=   16   IYMAX=   16   IZMAX=   42
   IXMIN=  -17   IYMIN=  -17   IZMIN=  -42


 parallel 3D FFT for wavefunctions:
    minimum data exchange during FFTs selected (reduces bandwidth)
 parallel 3D FFT for charge:
    minimum data exchange during FFTs selected (reduces bandwidth)


 total amount of memory used by VASP MPI-rank0    70024. kBytes
=======================================================================

   base      :      30000. kBytes
   nonl-proj :      21199. kBytes
   fftplans  :       3858. kBytes
   grid      :       5439. kBytes
   one-center:        129. kBytes
   wavefun   :       9399. kBytes

     INWAV:  cpu time      0.0000: real time      0.0000
 Broyden mixing: mesh for mixing (old mesh)
   NGX = 33   NGY = 33   NGZ = 85
  (NGX  =108   NGY  =108   NGZ  =256)
  gives a total of  92565 points

 initial charge density was supplied:
 charge density of overlapping atoms calculated
 number of electron     448.0000000 magnetization 
 keeping initial charge density in first step


--------------------------------------------------------------------------------------------------------


 Maximum index for augmentation-charges          332 (set IRDMAX)


--------------------------------------------------------------------------------------------------------


 First call to EWALD:  gamma=   0.154
 Maximum number of real-space cells 4x 4x 2
 Maximum number of reciprocal cells 2x 2x 5

    FEWALD:  cpu time      0.0062: real time      0.0062


--------------------------------------- Iteration      1(   1)  ---------------------------------------


    POTLOK:  cpu time      0.0321: real time      0.0322
    SETDIJ:  cpu time      0.1201: real time      0.1205
    TRIAL :  cpu time      4.6873: real time      4.7449
    CORREC:  cpu time      0.0012: real time      0.0012
    --------------------------------------------
      LOOP:  cpu time      4.8451: real time      4.9035

 eigenvalue-minimisations  :  2304
 total energy-change (2. order) : 0.4015877E+04  (-0.3005338E+05)
 number of electron     448.0000000 magnetization 
 augmentation part      448.0000000 magnetization 

 DIPCOR: dipole corrections for dipol
 direction  3 min pos     1,
 dipolmoment           0.000000      0.000000      0.000000 electrons x Angstroem
 Tr[quadrupol]     -6001.710210

 energy correction for charged system         0.000000 eV
 dipol+quadrupol energy correction           -0.000000 eV
 added-field ion interaction         -0.000000 eV  (added to PSCEN)


 Free energy of the ion-electron system (eV)
  ---------------------------------------------------
  alpha Z        PSCENC =       869.06037271
  Ewald energy   TEWEN  =    140149.80172705
  -Hartree energ DENC   =   -175645.00208165
  -exchange      EXHF   =         0.00000000
  -V(xc)+E(xc)   XCENC  =      1748.78035306
  PAW double counting   =     31854.93933934   -35687.86723865
  entropy T*S    EENTRO =        -0.03066372
  eigenvalues    EBANDS =     -6924.18112980
  atomic energy  EATOM  =     47650.37657287
  ---------------------------------------------------
  free energy    TOTEN  =      4015.87725120 eV

  energy without entropy =     4015.90791492  energy(sigma->0) =     4015.89258306


--------------------------------------------------------------------------------------------------------




--------------------------------------- Iteration      1(   2)  ---------------------------------------


    TRIAL :  cpu time      1.6976: real time      1.6978
    CORREC:  cpu time      0.0003: real time      0.0003
    --------------------------------------------
      LOOP:  cpu time      1.7066: real time      1.7121

 eigenvalue-minimisations  :  2304
 total energy-change (2. order) :-0.4144270E+04  (-0.4071194E+04)
 number of electron     448.0000000 magnetization 
 augmentation part      448.0000000 magnetization 

 DIPCOR: dipole corrections for dipol
 direction  3 min pos     1,
 dipolmoment           0.000000      0.000000      0.000000 electrons x Angstroem
 Tr[quadrupol]     -6001.710210

 energy correction for charged system         0.000000 eV
 dipol+quadrupol energy correction           -0.000000 eV
 added-field ion interaction         -0.000000 eV  (added to PSCEN)


 Free energy of the ion-electron system (eV)
  ---------------------------------------------------
  alpha Z        PSCENC =       869.06037271
  Ewald energy   TEWEN  =    140149.80172705
  -Hartree energ DENC   =   -175645.00208165
  -exchange      EXHF   =         0.00000000
  -V(xc)+E(xc)   XCENC  =      1748.78035306
  PAW double counting   =     31854.93933934   -35687.86723865
  entropy T*S    EENTRO =        -0.00000000
  eigenvalues    EBANDS =    -11068.48145615
  atomic energy  EATOM  =     47650.37657287
  ---------------------------------------------------
  free energy    TOTEN  =      -128.39241143 eV

  energy without entropy =     -128.39241143  energy(sigma->0) =     -128.39241143


--------------------------------------------------------------------------------------------------------




--------------------------------------- Iteration      1(   3)  ---------------------------------------


    TRIAL :  cpu time      1.7704: real time      1.7708
    CORREC:  cpu time      0.0003: real time      0.0003
    --------------------------------------------
      LOOP:  cpu time      1.7751: real time      1.7840

 eigenvalue-minimisations  :  2304
 total energy-change (2. order) :-0.3012965E+03  (-0.2992730E+03)
 number of electron     448.0000000 magnetization 
 augmentation part      448.0000000 magnetization 

 DIPCOR: dipole corrections for dipol
 direction  3 min pos     1,
 dipolmoment           0.000000      0.000000      0.000000 electrons x Angstroem
 Tr[quadrupol]     -6001.710210

 energy correction for charged system         0.000000 eV
 dipol+quadrupol energy correction           -0.000000 eV
 added-field ion interaction         -0.000000 eV  (added to PSCEN)


 Free energy of the ion-electron system (eV)
  ---------------------------------------------------
  alpha Z        PSCENC =       869.06037271
  Ewald energy   TEWEN  =    140149.80172705
  -Hartree energ DENC   =   -175645.00208165
  -exchange      EXHF   =         0.00000000
  -V(xc)+E(xc)   XCENC  =      1748.78035306
  PAW double counting   =     31854.93933934   -35687.86723865
  entropy T*S    EENTRO =        -0.00000000
  eigenvalues    EBANDS =    -11369.77796986
  atomic energy  EATOM  =     47650.37657287
  ---------------------------------------------------
  free energy    TOTEN  =      -429.68892514 eV

  energy without entropy =     -429.68892514  energy(sigma->0) =     -429.68892514


--------------------------------------------------------------------------------------------------------




--------------------------------------- Iteration      1(   4)  ---------------------------------------


    TRIAL :  cpu time      1.7640: real time      1.7648
    CORREC:  cpu time      0.0006: real time      0.0006
    --------------------------------------------
      LOOP:  cpu time      1.7771: real time      1.7782

 eigenvalue-minimisations  :  2368
 total energy-change (2. order) :-0.5673428E+01  (-0.5667658E+01)
 number of electron     448.0000000 magnetization 
 augmentation part      448.0000000 magnetization 

 DIPCOR: dipole corrections for dipol
 direction  3 min pos     1,
 dipolmoment           0.000000      0.000000      0.000000 electrons x Angstroem
 Tr[quadrupol]     -6001.710210

 energy correction for charged system         0.000000 eV
 dipol+quadrupol energy correction           -0.000000 eV
 added-field ion interaction         -0.000000 eV  (added to PSCEN)


 Free energy of the ion-electron system (eV)
  ---------------------------------------------------
  alpha Z        PSCENC =       869.06037271
  Ewald energy   TEWEN  =    140149.80172705
  -Hartree energ DENC   =   -175645.00208165
  -exchange      EXHF   =         0.00000000
  -V(xc)+E(xc)   XCENC  =      1748.78035306
  PAW double counting   =     31854.93933934   -35687.86723865
  entropy T*S    EENTRO =        -0.00000000
  eigenvalues    EBANDS =    -11375.45139780
  atomic energy  EATOM  =     47650.37657287
  ---------------------------------------------------
  free energy    TOTEN  =      -435.36235308 eV

  energy without entropy =     -435.36235308  energy(sigma->0) =     -435.36235308


--------------------------------------------------------------------------------------------------------




--------------------------------------- Iteration      1(   5)  ---------------------------------------


    TRIAL :  cpu time      1.7623: real time      1.7629
    CORREC:  cpu time      0.0003: real time      0.0003
    CHARGE:  cpu time      0.1150: real time      0.1152
    --------------------------------------------
      LOOP:  cpu time      1.8818: real time      1.8906

 eigenvalue-minimisations  :  2304
 total energy-change (2. order) :-0.7156693E-01  (-0.7156494E-01)
 number of electron     447.9999462 magnetization 
 augmentation part      158.8593473 magnetization 

 DIPCOR: dipole corrections for dipol
 direction  3 min pos     1,
 dipolmoment           0.000000      0.000000      0.000000 electrons x Angstroem
 Tr[quadrupol]     -6001.710210

 energy correction for charged system         0.000000 eV
 dipol+quadrupol energy correction           -0.000000 eV
 added-field ion interaction         -0.000000 eV  (added to PSCEN)


 Free energy of the ion-electron system (eV)
  ---------------------------------------------------
  alpha Z        PSCENC =       869.06037271
  Ewald energy   TEWEN  =    140149.80172705
  -Hartree energ DENC   =   -175645.00208165
  -exchange      EXHF   =         0.00000000
  -V(xc)+E(xc)   XCENC  =      1748.78035306
  PAW double counting   =     31854.93933934   -35687.86723865
  entropy T*S    EENTRO =        -0.00000000
  eigenvalues    EBANDS =    -11375.52296473
  atomic energy  EATOM  =     47650.37657287
  ---------------------------------------------------
  free energy    TOTEN  =      -435.43392001 eV

  energy without entropy =     -435.43392001  energy(sigma->0) =     -435.43392001


--------------------------------------------------------------------------------------------------------




--------------------------------------- Iteration      1(   6)  ---------------------------------------


    POTLOK:  cpu time      0.0269: real time      0.0269
    SETDIJ:  cpu time      0.1156: real time      0.1156
    TRIAL :  cpu time      0.5629: real time      0.5635
    CORREC:  cpu time      0.4491: real time      0.4495
    CHARGE:  cpu time      0.0996: real time      0.0996
    --------------------------------------------
      LOOP:  cpu time      1.2672: real time      1.2684

 eigenvalue-minimisations  :     0
 total energy-change (2. order) : 0.1740867E+03  (-0.9593655E+02)
 number of electron     447.9999394 magnetization 
 augmentation part      156.0224880 magnetization 

 DIPCOR: dipole corrections for dipol
 direction  3 min pos     1,
 dipolmoment           0.000000      0.000000      0.006709 electrons x Angstroem
 Tr[quadrupol]     -6040.557332

 energy correction for charged system         0.000000 eV
 dipol+quadrupol energy correction           -0.000003 eV
 added-field ion interaction         -0.000000 eV  (added to PSCEN)


 Free energy of the ion-electron system (eV)
  ---------------------------------------------------
  alpha Z        PSCENC =       869.06037270
  Ewald energy   TEWEN  =    140149.80172705
  -Hartree energ DENC   =   -179616.71479518
  -exchange      EXHF   =         0.00000000
  -V(xc)+E(xc)   XCENC  =      1872.89297374
  PAW double counting   =     36122.31759432   -39908.43890685
  entropy T*S    EENTRO =        -0.00000000
  eigenvalues    EBANDS =     -7400.64279256
  atomic energy  EATOM  =     47650.37657287
  ---------------------------------------------------
  free energy    TOTEN  =      -261.34725390 eV

  energy without entropy =     -261.34725390  energy(sigma->0) =     -261.34725390


--------------------------------------------------------------------------------------------------------




--------------------------------------- Iteration      1(   7)  ---------------------------------------


    POTLOK:  cpu time      0.0218: real time      0.0218
    SETDIJ:  cpu time      0.1165: real time      0.1165
    TRIAL :  cpu time      0.5096: real time      0.5097
    CORREC:  cpu time      0.4411: real time      0.4411
    CHARGE:  cpu time      0.0993: real time      0.0993
    --------------------------------------------
      LOOP:  cpu time      1.1952: real time      1.2028

 eigenvalue-minimisations  :     0
 total energy-change (2. order) :-0.9626373E+02  (-0.7124196E+01)
 number of electron     447.9999385 magnetization 
 augmentation part      154.0718906 magnetization 

 DIPCOR: dipole corrections for dipol
 direction  3 min pos     1,
 dipolmoment           0.000000      0.000000      0.001497 electrons x Angstroem
 Tr[quadrupol]     -6045.228535

 energy correction for charged system         0.000000 eV
 dipol+quadrupol energy correction           -0.000000 eV
 added-field ion interaction         -0.000000 eV  (added to PSCEN)


 Free energy of the ion-electron system (eV)
  ---------------------------------------------------
  alpha Z        PSCENC =       869.06037064
  Ewald energy   TEWEN  =    140149.80172705
  -Hartree energ DENC   =   -177726.14720313
  -exchange      EXHF   =         0.00000000
  -V(xc)+E(xc)   XCENC  =      1805.23364156
  PAW double counting   =     35046.59834620   -38901.64025250
  entropy T*S    EENTRO =        -0.00000000
  eigenvalues    EBANDS =     -9250.89418296
  atomic energy  EATOM  =     47650.37657287
  ---------------------------------------------------
  free energy    TOTEN  =      -357.61098029 eV

  energy without entropy =     -357.61098029  energy(sigma->0) =     -357.61098029


--------------------------------------------------------------------------------------------------------




--------------------------------------- Iteration      1(   8)  ---------------------------------------


    POTLOK:  cpu time      0.0217: real time      0.0217
    SETDIJ:  cpu time      0.1165: real time      0.1165
    TRIAL :  cpu time      0.5085: real time      0.5087
    CORREC:  cpu time      0.4401: real time      0.4401
    CHARGE:  cpu time      0.0990: real time      0.0990
    --------------------------------------------
      LOOP:  cpu time      1.1992: real time      1.1997

 eigenvalue-minimisations  :     0
 total energy-change (2. order) :-0.7141668E+01  (-0.4397164E+01)
 number of electron     447.9999372 magnetization 
 augmentation part      154.2020689 magnetization 

 DIPCOR: dipole corrections for dipol
 direction  3 min pos     1,
 dipolmoment           0.000000      0.000000     -0.001170 electrons x Angstroem
 Tr[quadrupol]     -6043.023854

 energy correction for charged system         0.000000 eV
 dipol+quadrupol energy correction           -0.000000 eV
 added-field ion interaction         -0.000000 eV  (added to PSCEN)


 Free energy of the ion-electron system (eV)
  ---------------------------------------------------
  alpha Z        PSCENC =       869.06037270
  Ewald energy   TEWEN  =    140149.80172705
  -Hartree energ DENC   =   -177612.61469661
  -exchange      EXHF   =         0.00000000
  -V(xc)+E(xc)   XCENC  =      1794.82971836
  PAW double counting   =     34904.21820121   -38687.20211455
  entropy T*S    EENTRO =        -0.00000000
  eigenvalues    EBANDS =     -9433.22242966
  atomic energy  EATOM  =     47650.37657287
  ---------------------------------------------------
  free energy    TOTEN  =      -364.75264864 eV

  energy without entropy =     -364.75264864  energy(sigma->0) =     -364.75264864


--------------------------------------------------------------------------------------------------------




--------------------------------------- Iteration      1(   9)  ---------------------------------------


    POTLOK:  cpu time      0.0218: real time      0.0218
    SETDIJ:  cpu time      0.1166: real time      0.1166
    TRIAL :  cpu time      0.5073: real time      0.5075
    CORREC:  cpu time      0.4397: real time      0.4397
    CHARGE:  cpu time      0.1000: real time      0.1001
    --------------------------------------------
      LOOP:  cpu time      1.1983: real time      1.1989

 eigenvalue-minimisations  :     0
 total energy-change (2. order) :-0.4350731E+01  (-0.1897101E+01)
 number of electron     447.9999375 magnetization 
 augmentation part      154.3076706 magnetization 

 DIPCOR: dipole corrections for dipol
 direction  3 min pos     1,
 dipolmoment           0.000000      0.000000     -0.000726 electrons x Angstroem
 Tr[quadrupol]     -6037.386549

 energy correction for charged system         0.000000 eV
 dipol+quadrupol energy correction           -0.000000 eV
 added-field ion interaction          0.000000 eV  (added to PSCEN)


 Free energy of the ion-electron system (eV)
  ---------------------------------------------------
  alpha Z        PSCENC =       869.06037254
  Ewald energy   TEWEN  =    140149.80172705
  -Hartree energ DENC   =   -177482.22129330
  -exchange      EXHF   =         0.00000000
  -V(xc)+E(xc)   XCENC  =      1794.32661057
  PAW double counting   =     34805.39103466   -38625.24516586
  entropy T*S    EENTRO =        -0.00000000
  eigenvalues    EBANDS =     -9530.59323812
  atomic energy  EATOM  =     47650.37657287
  ---------------------------------------------------
  free energy    TOTEN  =      -369.10337959 eV

  energy without entropy =     -369.10337959  energy(sigma->0) =     -369.10337959


--------------------------------------------------------------------------------------------------------




--------------------------------------- Iteration      1(  10)  ---------------------------------------


    POTLOK:  cpu time      0.0218: real time      0.0218
    SETDIJ:  cpu time      0.1165: real time      0.1165
    TRIAL :  cpu time      0.5069: real time      0.5069
    CORREC:  cpu time      0.4396: real time      0.4398
    CHARGE:  cpu time      0.0997: real time      0.0997
    --------------------------------------------
      LOOP:  cpu time      1.1883: real time      1.1981

 eigenvalue-minimisations  :     0
 total energy-change (2. order) :-0.1902788E+01  (-0.6666041E+00)
 number of electron     447.9999382 magnetization 
 augmentation part      154.2690128 magnetization 

 DIPCOR: dipole corrections for dipol
 direction  3 min pos     1,
 dipolmoment           0.000000      0.000000     -0.000215 electrons x Angstroem
 Tr[quadrupol]     -6036.347346

 energy correction for charged system         0.000000 eV
 dipol+quadrupol energy correction           -0.000000 eV
 added-field ion interaction         -0.000000 eV  (added to PSCEN)


 Free energy of the ion-electron system (eV)
  ---------------------------------------------------
  alpha Z        PSCENC =       869.06037267
  Ewald energy   TEWEN  =    140149.80172705
  -Hartree energ DENC   =   -177338.48904278
  -exchange      EXHF   =         0.00000000
  -V(xc)+E(xc)   XCENC  =      1793.15893399
  PAW double counting   =     34700.39200202   -38532.40819060
  entropy T*S    EENTRO =        -0.00000000
  eigenvalues    EBANDS =     -9662.89854250
  atomic energy  EATOM  =     47650.37657287
  ---------------------------------------------------
  free energy    TOTEN  =      -371.00616729 eV

  energy without entropy =     -371.00616729  energy(sigma->0) =     -371.00616729


--------------------------------------------------------------------------------------------------------




--------------------------------------- Iteration      1(  11)  ---------------------------------------


    POTLOK:  cpu time      0.0215: real time      0.0215
    SETDIJ:  cpu time      0.1166: real time      0.1166
    TRIAL :  cpu time      0.5073: real time      0.5073
    CORREC:  cpu time      0.4388: real time      0.4389
    CHARGE:  cpu time      0.0994: real time      0.0994
    --------------------------------------------
      LOOP:  cpu time      1.1892: real time      1.1974

 eigenvalue-minimisations  :     0
 total energy-change (2. order) :-0.6670560E+00  (-0.1981358E+00)
 number of electron     447.9999384 magnetization 
 augmentation part      154.3347734 magnetization 

 DIPCOR: dipole corrections for dipol
 direction  3 min pos     1,
 dipolmoment           0.000000      0.000000     -0.000281 electrons x Angstroem
 Tr[quadrupol]     -6036.432629

 energy correction for charged system         0.000000 eV
 dipol+quadrupol energy correction           -0.000000 eV
 added-field ion interaction          0.000000 eV  (added to PSCEN)


 Free energy of the ion-electron system (eV)
  ---------------------------------------------------
  alpha Z        PSCENC =       869.06037270
  Ewald energy   TEWEN  =    140149.80172705
  -Hartree energ DENC   =   -177271.71727066
  -exchange      EXHF   =         0.00000000
  -V(xc)+E(xc)   XCENC  =      1792.03674977
  PAW double counting   =     34640.90205994   -38464.14986269
  entropy T*S    EENTRO =        -0.00000000
  eigenvalues    EBANDS =     -9737.98357231
  atomic energy  EATOM  =     47650.37657287
  ---------------------------------------------------
  free energy    TOTEN  =      -371.67322334 eV

  energy without entropy =     -371.67322334  energy(sigma->0) =     -371.67322334


--------------------------------------------------------------------------------------------------------




--------------------------------------- Iteration      1(  12)  ---------------------------------------


    POTLOK:  cpu time      0.0217: real time      0.0217
    SETDIJ:  cpu time      0.1164: real time      0.1164
    TRIAL :  cpu time      0.5091: real time      0.5093
    CORREC:  cpu time      0.4402: real time      0.4406
    CHARGE:  cpu time      0.0999: real time      0.0999
    --------------------------------------------
      LOOP:  cpu time      1.1916: real time      1.2003

 eigenvalue-minimisations  :     0
 total energy-change (2. order) :-0.1981313E+00  (-0.6134905E-01)
 number of electron     447.9999385 magnetization 
 augmentation part      154.4188924 magnetization 

 DIPCOR: dipole corrections for dipol
 direction  3 min pos     1,
 dipolmoment           0.000000      0.000000     -0.000313 electrons x Angstroem
 Tr[quadrupol]     -6036.609161

 energy correction for charged system         0.000000 eV
 dipol+quadrupol energy correction           -0.000000 eV
 added-field ion interaction          0.000000 eV  (added to PSCEN)


 Free energy of the ion-electron system (eV)
  ---------------------------------------------------
  alpha Z        PSCENC =       869.06037270
  Ewald energy   TEWEN  =    140149.80172705
  -Hartree energ DENC   =   -177270.72175488
  -exchange      EXHF   =         0.00000000
  -V(xc)+E(xc)   XCENC  =      1792.01679224
  PAW double counting   =     34626.49527576   -38447.67578092
  entropy T*S    EENTRO =        -0.00000000
  eigenvalues    EBANDS =     -9741.22455944
  atomic energy  EATOM  =     47650.37657287
  ---------------------------------------------------
  free energy    TOTEN  =      -371.87135462 eV

  energy without entropy =     -371.87135462  energy(sigma->0) =     -371.87135462


--------------------------------------------------------------------------------------------------------




--------------------------------------- Iteration      1(  13)  ---------------------------------------


    POTLOK:  cpu time      0.0217: real time      0.0217
    SETDIJ:  cpu time      0.1165: real time      0.1165
    TRIAL :  cpu time      0.5084: real time      0.5087
    CORREC:  cpu time      0.4395: real time      0.4395
    CHARGE:  cpu time      0.1001: real time      0.1001
    --------------------------------------------
      LOOP:  cpu time      1.1921: real time      1.2002

 eigenvalue-minimisations  :     0
 total energy-change (2. order) :-0.6135715E-01  (-0.2205816E-01)
 number of electron     447.9999385 magnetization 
 augmentation part      154.4434314 magnetization 

 DIPCOR: dipole corrections for dipol
 direction  3 min pos     1,
 dipolmoment           0.000000      0.000000     -0.000193 electrons x Angstroem
 Tr[quadrupol]     -6036.704640

 energy correction for charged system         0.000000 eV
 dipol+quadrupol energy correction           -0.000000 eV
 added-field ion interaction          0.000000 eV  (added to PSCEN)


 Free energy of the ion-electron system (eV)
  ---------------------------------------------------
  alpha Z        PSCENC =       869.06037270
  Ewald energy   TEWEN  =    140149.80172705
  -Hartree energ DENC   =   -177279.95324567
  -exchange      EXHF   =         0.00000000
  -V(xc)+E(xc)   XCENC  =      1792.18788548
  PAW double counting   =     34623.84272796   -38447.66825476
  entropy T*S    EENTRO =        -0.00000000
  eigenvalues    EBANDS =     -9729.58049740
  atomic energy  EATOM  =     47650.37657287
  ---------------------------------------------------
  free energy    TOTEN  =      -371.93271177 eV

  energy without entropy =     -371.93271177  energy(sigma->0) =     -371.93271177


--------------------------------------------------------------------------------------------------------




--------------------------------------- Iteration      1(  14)  ---------------------------------------


    POTLOK:  cpu time      0.0217: real time      0.0217
    SETDIJ:  cpu time      0.1162: real time      0.1163
    TRIAL :  cpu time      0.5090: real time      0.5090
    CORREC:  cpu time      0.4397: real time      0.4398
    CHARGE:  cpu time      0.0994: real time      0.0995
    --------------------------------------------
      LOOP:  cpu time      1.1896: real time      1.2003

 eigenvalue-minimisations  :     0
 total energy-change (2. order) :-0.2206275E-01  (-0.9185225E-02)
 number of electron     447.9999385 magnetization 
 augmentation part      154.4353258 magnetization 

 DIPCOR: dipole corrections for dipol
 direction  3 min pos     1,
 dipolmoment           0.000000      0.000000     -0.000048 electrons x Angstroem
 Tr[quadrupol]     -6036.826865

 energy correction for charged system         0.000000 eV
 dipol+quadrupol energy correction           -0.000000 eV
 added-field ion interaction          0.000000 eV  (added to PSCEN)


 Free energy of the ion-electron system (eV)
  ---------------------------------------------------
  alpha Z        PSCENC =       869.06037270
  Ewald energy   TEWEN  =    140149.80172705
  -Hartree energ DENC   =   -177283.14268324
  -exchange      EXHF   =         0.00000000
  -V(xc)+E(xc)   XCENC  =      1792.19023057
  PAW double counting   =     34623.00842104   -38447.92768228
  entropy T*S    EENTRO =        -0.00000000
  eigenvalues    EBANDS =     -9725.32173323
  atomic energy  EATOM  =     47650.37657287
  ---------------------------------------------------
  free energy    TOTEN  =      -371.95477452 eV

  energy without entropy =     -371.95477452  energy(sigma->0) =     -371.95477452


--------------------------------------------------------------------------------------------------------




--------------------------------------- Iteration      1(  15)  ---------------------------------------


    POTLOK:  cpu time      0.0218: real time      0.0218
    SETDIJ:  cpu time      0.1163: real time      0.1163
    TRIAL :  cpu time      0.5060: real time      0.5060
    CORREC:  cpu time      0.4393: real time      0.4395
    CHARGE:  cpu time      0.1002: real time      0.1002
    --------------------------------------------
      LOOP:  cpu time      1.1962: real time      1.1965

 eigenvalue-minimisations  :     0
 total energy-change (2. order) :-0.9188725E-02  (-0.3941802E-02)
 number of electron     447.9999385 magnetization 
 augmentation part      154.4280792 magnetization 

 DIPCOR: dipole corrections for dipol
 direction  3 min pos     1,
 dipolmoment           0.000000      0.000000      0.000016 electrons x Angstroem
 Tr[quadrupol]     -6036.952928

 energy correction for charged system         0.000000 eV
 dipol+quadrupol energy correction           -0.000000 eV
 added-field ion interaction         -0.000000 eV  (added to PSCEN)


 Free energy of the ion-electron system (eV)
  ---------------------------------------------------
  alpha Z        PSCENC =       869.06037271
  Ewald energy   TEWEN  =    140149.80172705
  -Hartree energ DENC   =   -177288.02478833
  -exchange      EXHF   =         0.00000000
  -V(xc)+E(xc)   XCENC  =      1792.24750389
  PAW double counting   =     34626.57002814   -38450.86328990
  entropy T*S    EENTRO =        -0.00000000
  eigenvalues    EBANDS =     -9721.13208967
  atomic energy  EATOM  =     47650.37657287
  ---------------------------------------------------
  free energy    TOTEN  =      -371.96396325 eV

  energy without entropy =     -371.96396325  energy(sigma->0) =     -371.96396325


--------------------------------------------------------------------------------------------------------




--------------------------------------- Iteration      1(  16)  ---------------------------------------


    POTLOK:  cpu time      0.0216: real time      0.0216
    SETDIJ:  cpu time      0.1166: real time      0.1166
    TRIAL :  cpu time      0.5079: real time      0.5079
    CORREC:  cpu time      0.4396: real time      0.4397
    CHARGE:  cpu time      0.0993: real time      0.0993
    --------------------------------------------
      LOOP:  cpu time      1.1892: real time      1.1979

 eigenvalue-minimisations  :     0
 total energy-change (2. order) :-0.3941745E-02  (-0.1348018E-02)
 number of electron     447.9999385 magnetization 
 augmentation part      154.4259773 magnetization 

 DIPCOR: dipole corrections for dipol
 direction  3 min pos     1,
 dipolmoment           0.000000      0.000000      0.000022 electrons x Angstroem
 Tr[quadrupol]     -6037.016503

 energy correction for charged system         0.000000 eV
 dipol+quadrupol energy correction           -0.000000 eV
 added-field ion interaction         -0.000000 eV  (added to PSCEN)


 Free energy of the ion-electron system (eV)
  ---------------------------------------------------
  alpha Z        PSCENC =       869.06037271
  Ewald energy   TEWEN  =    140149.80172705
  -Hartree energ DENC   =   -177293.85639202
  -exchange      EXHF   =         0.00000000
  -V(xc)+E(xc)   XCENC  =      1792.35659047
  PAW double counting   =     34631.94363484   -38455.77668415
  entropy T*S    EENTRO =        -0.00000000
  eigenvalues    EBANDS =     -9715.87372676
  atomic energy  EATOM  =     47650.37657287
  ---------------------------------------------------
  free energy    TOTEN  =      -371.96790499 eV

  energy without entropy =     -371.96790499  energy(sigma->0) =     -371.96790499


--------------------------------------------------------------------------------------------------------




--------------------------------------- Iteration      1(  17)  ---------------------------------------


    POTLOK:  cpu time      0.0220: real time      0.0220
    SETDIJ:  cpu time      0.1164: real time      0.1164
    TRIAL :  cpu time      0.5074: real time      0.5075
    CORREC:  cpu time      0.4394: real time      0.4395
    CHARGE:  cpu time      0.0995: real time      0.0995
    --------------------------------------------
      LOOP:  cpu time      1.1979: real time      1.1984

 eigenvalue-minimisations  :     0
 total energy-change (2. order) :-0.1345238E-02  (-0.4572741E-03)
 number of electron     447.9999385 magnetization 
 augmentation part      154.4255525 magnetization 

 DIPCOR: dipole corrections for dipol
 direction  3 min pos     1,
 dipolmoment           0.000000      0.000000      0.000022 electrons x Angstroem
 Tr[quadrupol]     -6037.024542

 energy correction for charged system         0.000000 eV
 dipol+quadrupol energy correction           -0.000000 eV
 added-field ion interaction          0.000000 eV  (added to PSCEN)


 Free energy of the ion-electron system (eV)
  ---------------------------------------------------
  alpha Z        PSCENC =       869.06037271
  Ewald energy   TEWEN  =    140149.80172705
  -Hartree energ DENC   =   -177295.46246497
  -exchange      EXHF   =         0.00000000
  -V(xc)+E(xc)   XCENC  =      1792.37809733
  PAW double counting   =     34634.61954134   -38458.58181399
  entropy T*S    EENTRO =        -0.00000000
  eigenvalues    EBANDS =     -9714.16128256
  atomic energy  EATOM  =     47650.37657287
  ---------------------------------------------------
  free energy    TOTEN  =      -371.96925023 eV

  energy without entropy =     -371.96925023  energy(sigma->0) =     -371.96925023


--------------------------------------------------------------------------------------------------------




--------------------------------------- Iteration      1(  18)  ---------------------------------------


    POTLOK:  cpu time      0.0218: real time      0.0218
    SETDIJ:  cpu time      0.1165: real time      0.1165
    TRIAL :  cpu time      0.5073: real time      0.5076
    CORREC:  cpu time      0.4381: real time      0.4381
    CHARGE:  cpu time      0.0997: real time      0.0997
    --------------------------------------------
      LOOP:  cpu time      1.1880: real time      1.1960

 eigenvalue-minimisations  :     0
 total energy-change (2. order) :-0.4558130E-03  (-0.1524792E-03)
 number of electron     447.9999385 magnetization 
 augmentation part      154.4259332 magnetization 

 DIPCOR: dipole corrections for dipol
 direction  3 min pos     1,
 dipolmoment           0.000000      0.000000      0.000019 electrons x Angstroem
 Tr[quadrupol]     -6037.019588

 energy correction for charged system         0.000000 eV
 dipol+quadrupol energy correction           -0.000000 eV
 added-field ion interaction          0.000000 eV  (added to PSCEN)


 Free energy of the ion-electron system (eV)
  ---------------------------------------------------
  alpha Z        PSCENC =       869.06037271
  Ewald energy   TEWEN  =    140149.80172705
  -Hartree energ DENC   =   -177295.49177025
  -exchange      EXHF   =         0.00000000
  -V(xc)+E(xc)   XCENC  =      1792.37849889
  PAW double counting   =     34636.18472406   -38460.22637639
  entropy T*S    EENTRO =        -0.00000000
  eigenvalues    EBANDS =     -9714.05345498
  atomic energy  EATOM  =     47650.37657287
  ---------------------------------------------------
  free energy    TOTEN  =      -371.96970604 eV

  energy without entropy =     -371.96970604  energy(sigma->0) =     -371.96970604


--------------------------------------------------------------------------------------------------------




--------------------------------------- Iteration      1(  19)  ---------------------------------------


    POTLOK:  cpu time      0.0218: real time      0.0218
    SETDIJ:  cpu time      0.1164: real time      0.1164
    TRIAL :  cpu time      0.5069: real time      0.5072
    CORREC:  cpu time      0.4401: real time      0.4401
    CHARGE:  cpu time      0.0994: real time      0.0995
    --------------------------------------------
      LOOP:  cpu time      1.1972: real time      1.1977

 eigenvalue-minimisations  :     0
 total energy-change (2. order) :-0.1522746E-03  (-0.5332384E-04)
 number of electron     447.9999385 magnetization 
 augmentation part      154.4255586 magnetization 

 DIPCOR: dipole corrections for dipol
 direction  3 min pos     1,
 dipolmoment           0.000000      0.000000      0.000008 electrons x Angstroem
 Tr[quadrupol]     -6037.007659

 energy correction for charged system         0.000000 eV
 dipol+quadrupol energy correction           -0.000000 eV
 added-field ion interaction          0.000000 eV  (added to PSCEN)


 Free energy of the ion-electron system (eV)
  ---------------------------------------------------
  alpha Z        PSCENC =       869.06037271
  Ewald energy   TEWEN  =    140149.80172705
  -Hartree energ DENC   =   -177295.48350571
  -exchange      EXHF   =         0.00000000
  -V(xc)+E(xc)   XCENC  =      1792.39221021
  PAW double counting   =     34637.05725950   -38461.04765733
  entropy T*S    EENTRO =        -0.00000000
  eigenvalues    EBANDS =     -9714.12683760
  atomic energy  EATOM  =     47650.37657287
  ---------------------------------------------------
  free energy    TOTEN  =      -371.96985832 eV

  energy without entropy =     -371.96985832  energy(sigma->0) =     -371.96985832


--------------------------------------------------------------------------------------------------------




--------------------------------------- Iteration      1(  20)  ---------------------------------------


    POTLOK:  cpu time      0.0218: real time      0.0218
    SETDIJ:  cpu time      0.1165: real time      0.1165
    TRIAL :  cpu time      0.5071: real time      0.5071
    CORREC:  cpu time      0.4405: real time      0.4407
    CHARGE:  cpu time      0.1001: real time      0.1001
    --------------------------------------------
      LOOP:  cpu time      1.1911: real time      1.1997

 eigenvalue-minimisations  :     0
 total energy-change (2. order) :-0.5316807E-04  (-0.1716218E-04)
 number of electron     447.9999385 magnetization 
 augmentation part      154.4252448 magnetization 

 DIPCOR: dipole corrections for dipol
 direction  3 min pos     1,
 dipolmoment           0.000000      0.000000     -0.000000 electrons x Angstroem
 Tr[quadrupol]     -6036.996518

 energy correction for charged system         0.000000 eV
 dipol+quadrupol energy correction           -0.000000 eV
 added-field ion interaction         -0.000000 eV  (added to PSCEN)


 Free energy of the ion-electron system (eV)
  ---------------------------------------------------
  alpha Z        PSCENC =       869.06037271
  Ewald energy   TEWEN  =    140149.80172705
  -Hartree energ DENC   =   -177294.93110217
  -exchange      EXHF   =         0.00000000
  -V(xc)+E(xc)   XCENC  =      1792.38822392
  PAW double counting   =     34636.70053187   -38460.66127274
  entropy T*S    EENTRO =        -0.00000000
  eigenvalues    EBANDS =     -9714.70496499
  atomic energy  EATOM  =     47650.37657287
  ---------------------------------------------------
  free energy    TOTEN  =      -371.96991148 eV

  energy without entropy =     -371.96991148  energy(sigma->0) =     -371.96991148


--------------------------------------------------------------------------------------------------------




--------------------------------------- Iteration      1(  21)  ---------------------------------------


    POTLOK:  cpu time      0.0218: real time      0.0218
    SETDIJ:  cpu time      0.1160: real time      0.1160
    TRIAL :  cpu time      0.5073: real time      0.5074
    CORREC:  cpu time      0.4395: real time      0.4397
    CHARGE:  cpu time      0.1000: real time      0.1000
    --------------------------------------------
      LOOP:  cpu time      1.1982: real time      1.1987

 eigenvalue-minimisations  :     0
 total energy-change (2. order) :-0.1700420E-04  (-0.5151819E-05)
 number of electron     447.9999385 magnetization 
 augmentation part      154.4254432 magnetization 

 DIPCOR: dipole corrections for dipol
 direction  3 min pos     1,
 dipolmoment           0.000000      0.000000     -0.000001 electrons x Angstroem
 Tr[quadrupol]     -6036.993112

 energy correction for charged system         0.000000 eV
 dipol+quadrupol energy correction           -0.000000 eV
 added-field ion interaction         -0.000000 eV  (added to PSCEN)


 Free energy of the ion-electron system (eV)
  ---------------------------------------------------
  alpha Z        PSCENC =       869.06037271
  Ewald energy   TEWEN  =    140149.80172705
  -Hartree energ DENC   =   -177294.50637076
  -exchange      EXHF   =         0.00000000
  -V(xc)+E(xc)   XCENC  =      1792.37967599
  PAW double counting   =     34636.09212296   -38460.05815674
  entropy T*S    EENTRO =        -0.00000000
  eigenvalues    EBANDS =     -9715.11587255
  atomic energy  EATOM  =     47650.37657287
  ---------------------------------------------------
  free energy    TOTEN  =      -371.96992849 eV

  energy without entropy =     -371.96992849  energy(sigma->0) =     -371.96992849


--------------------------------------------------------------------------------------------------------




--------------------------------------- Iteration      1(  22)  ---------------------------------------


    POTLOK:  cpu time      0.0219: real time      0.0219
    SETDIJ:  cpu time      0.1163: real time      0.1163
    TRIAL :  cpu time      0.5083: real time      0.5085
    CORREC:  cpu time      0.4388: real time      0.4388
    CHARGE:  cpu time      0.0998: real time      0.0998
    --------------------------------------------
      LOOP:  cpu time      1.1895: real time      1.1979

 eigenvalue-minimisations  :     0
 total energy-change (2. order) :-0.5159520E-05  (-0.1617588E-05)
 number of electron     447.9999385 magnetization 
 augmentation part      154.4255313 magnetization 

 DIPCOR: dipole corrections for dipol
 direction  3 min pos     1,
 dipolmoment           0.000000      0.000000     -0.000000 electrons x Angstroem
 Tr[quadrupol]     -6036.992398

 energy correction for charged system         0.000000 eV
 dipol+quadrupol energy correction           -0.000000 eV
 added-field ion interaction          0.000000 eV  (added to PSCEN)


 Free energy of the ion-electron system (eV)
  ---------------------------------------------------
  alpha Z        PSCENC =       869.06037271
  Ewald energy   TEWEN  =    140149.80172705
  -Hartree energ DENC   =   -177294.47694305
  -exchange      EXHF   =         0.00000000
  -V(xc)+E(xc)   XCENC  =      1792.38024858
  PAW double counting   =     34635.87035108   -38459.84025196
  entropy T*S    EENTRO =        -0.00000000
  eigenvalues    EBANDS =     -9715.14201091
  atomic energy  EATOM  =     47650.37657287
  ---------------------------------------------------
  free energy    TOTEN  =      -371.96993365 eV

  energy without entropy =     -371.96993365  energy(sigma->0) =     -371.96993365


--------------------------------------------------------------------------------------------------------




--------------------------------------- Iteration      1(  23)  ---------------------------------------


    POTLOK:  cpu time      0.0218: real time      0.0218
    SETDIJ:  cpu time      0.1167: real time      0.1167
    TRIAL :  cpu time      0.5070: real time      0.5072
[...]
    309       9.2446      0.00000
    310       9.2463      0.00000
    311       9.2469      0.00000
    312       9.2480      0.00000
    313       9.3838      0.00000
    314       9.3838      0.00000
    315       9.3838      0.00000
    316       9.3838      0.00000
    317      10.0273      0.00000
    318      10.0307      0.00000
    319      10.0315      0.00000
    320      10.0322      0.00000


--------------------------------------------------------------------------------------------------------


 soft charge-density along one line, spin component           1
         0         1         2         3         4         5         6         7         8         9
 total charge-density along one line

 pseudopotential strength for first ion, spin component:           1
-51.807  -0.000  -0.000   7.246   0.000   0.000   0.000  -0.000
 -0.000 -51.863   0.000   0.000   7.273  -0.000  -0.033   0.082
 -0.000   0.000 -51.807   0.000  -0.000   7.246   0.000  -0.000
  7.246   0.000   0.000   4.273  -0.000  -0.000   0.000  -0.000
  0.000   7.273  -0.000  -0.000   4.281   0.000  -0.004   0.008
  0.000  -0.000   7.246  -0.000   0.000   4.273   0.000  -0.000
  0.000  -0.033   0.000   0.000  -0.004   0.000   3.006 -11.095
 -0.000   0.082  -0.000  -0.000   0.008  -0.000 -11.095  46.262
 -0.000   0.000  -0.000   0.000  -0.000   0.000   0.000  -0.000
  0.009  -0.000   0.000  -0.009   0.000  -0.000   0.000  -0.000
  0.000   0.010   0.000  -0.000  -0.018  -0.000   0.009  -0.019
  0.000  -0.000   0.009  -0.000   0.000  -0.009  -0.000   0.000
  0.000   0.000  -0.000  -0.000   0.000   0.000  -0.000   0.000
 total augmentation occupancy for first ion, spin component:           1
  2.001   0.000  -0.000  -0.006   0.000  -0.000   0.000   0.000  -0.000  -0.008   0.000  -0.000   0.000
  0.000   2.002  -0.000  -0.000   0.000  -0.000   0.001   0.004  -0.000   0.000  -0.014   0.000  -0.000
 -0.000  -0.000   2.001  -0.000   0.000  -0.006   0.000   0.000  -0.000   0.000   0.000  -0.008  -0.000
 -0.006  -0.000  -0.000   0.076  -0.000  -0.000  -0.000   0.000  -0.000   0.001  -0.000  -0.000   0.000
  0.000   0.000   0.000  -0.000   0.047   0.000   0.039   0.001  -0.000   0.000   0.025  -0.000   0.000
 -0.000  -0.000  -0.006  -0.000   0.000   0.076   0.000  -0.000   0.000  -0.000  -0.000   0.001  -0.000
  0.000   0.001   0.000  -0.000   0.039   0.000   0.824   0.013   0.000  -0.000  -0.039   0.000  -0.000
  0.000   0.004   0.000   0.000   0.001  -0.000   0.013   0.000   0.000  -0.000  -0.001   0.000  -0.000
 -0.000  -0.000  -0.000  -0.000  -0.000   0.000   0.000   0.000   0.013  -0.000   0.000   0.000   0.000
 -0.008   0.000   0.000   0.001   0.000  -0.000  -0.000  -0.000  -0.000   0.011  -0.000   0.000   0.000
  0.000  -0.014   0.000  -0.000   0.025  -0.000  -0.039  -0.001   0.000  -0.000   0.030   0.000  -0.000
 -0.000   0.000  -0.008  -0.000  -0.000   0.001   0.000   0.000   0.000   0.000   0.000   0.011   0.000
  0.000  -0.000  -0.000   0.000   0.000  -0.000  -0.000  -0.000   0.000   0.000  -0.000   0.000   0.051


------------------------ aborting loop because EDIFF is reached ----------------------------------------


    FORLOC:  cpu time      0.0021: real time      0.0021
    FORNL :  cpu time      0.2877: real time      0.2877
    STRESS:  cpu time      0.8852: real time      0.8853
    FORCOR:  cpu time      0.0193: real time      0.0193
    OFIELD:  cpu time      0.0000: real time      0.0000

  Number of pair interactions contributing to vdW energy:  719008
  Edisp (eV):   -3.58215
    FORVDW:  cpu time      0.1083: real time      0.1083

  FORCE on cell =-STRESS in cart. coord.  units (eV):
  Direction    XX          YY          ZZ          XY          YZ          ZX
  --------------------------------------------------------------------------------------
  Alpha Z   869.06037   869.06037   869.06037
  Ewald  160150.40884160150.40884************    -0.00000    -0.00000    -0.00000
  Hartree170224.43771170224.43771************    -0.00000    -0.00000    -0.00000
  E(xc)   -2455.59117 -2455.59117 -2460.77377     0.00000    -0.00000     0.00000
  Local  ************************340551.51648    -0.00000     0.00000    -0.00000
  n-local -2812.21482 -2813.08776 -2832.81045     0.00000    -0.00000    -0.00000
  augment  1047.86447  1047.86447  1038.69781     0.00000    -0.00000    -0.00000
  Kinetic  7296.32692  7299.09189  7340.67658    -0.00000     0.00000     0.00000
  Fock        0.00000     0.00000     0.00000     0.00000     0.00000     0.00000
  vdW        -5.22364    -5.22364    -4.25555    -0.00000     0.00000     0.00000
  -------------------------------------------------------------------------------------
  Total     -29.46797   -29.46797    -2.75419     0.00000     0.00000    -0.00000
  in kB     -30.84480   -30.84480    -2.88287     0.00000     0.00000    -0.00000
  external pressure =      -21.52 kB  Pullay stress =        0.00 kB


 VOLUME and BASIS-vectors are now :
 -----------------------------------------------------------------------------
  energy-cutoff  :      600.00
  volume of cell :     1530.66
      direct lattice vectors                 reciprocal lattice vectors
     8.467142631  0.000000000  0.000000000     0.118103597  0.000000000  0.000000000
     0.000000000  8.467142631  0.000000000     0.000000000  0.118103597  0.000000000
     0.000000000  0.000000000 21.350356973     0.000000000  0.000000000  0.046837624

  length of vectors
     8.467142631  8.467142631 21.350356973     0.118103597  0.118103597  0.046837624


 FORCES acting on ions:
    Electron-Ion                     Ewald-Force                    Non-Local-Force
 -----------------------------------------------------------------------------------------------
   0.264E-12 -.151E-12 0.205E+04   0.147E-12 0.808E-13 -.205E+04   -.207E-24 0.362E-24 -.703E+01
   0.864E-12 0.235E-13 0.205E+04   0.109E-12 0.355E-13 -.205E+04   0.000E+00 0.414E-24 -.703E+01
   0.364E-12 0.527E-12 0.680E+03   -.148E-10 0.150E-10 -.680E+03   -.910E-23 -.331E-23 0.492E+00
   0.781E-12 -.537E-13 0.680E+03   0.151E-10 -.148E-10 -.680E+03   -.207E-23 -.124E-23 0.492E+00
   0.321E-12 0.671E-13 -.685E+03   -.148E-10 -.149E-10 0.686E+03   -.298E-22 -.265E-22 -.294E+00
   0.783E-12 0.117E-11 -.685E+03   0.149E-10 0.148E-10 0.686E+03   0.711E-25 -.331E-22 -.294E+00
   0.257E-12 0.477E-12 -.204E+04   -.152E-11 0.153E-11 0.203E+04   -.743E-23 -.165E-23 0.606E+01
   0.897E-12 0.282E-12 -.204E+04   0.155E-11 -.152E-11 0.203E+04   0.331E-23 0.000E+00 0.606E+01
   0.266E-12 0.119E-11 0.205E+04   0.152E-11 -.149E-10 -.205E+04   -.620E-24 0.000E+00 -.703E+01
   0.853E-12 0.157E-11 0.205E+04   -.124E-11 0.150E-10 -.205E+04   0.827E-24 0.000E+00 -.703E+01
   0.349E-12 0.108E-11 0.680E+03   -.132E-10 0.164E-10 -.680E+03   -.993E-23 -.827E-24 0.492E+00
   0.780E-12 0.440E-12 0.680E+03   0.136E-10 -.162E-10 -.680E+03   -.827E-24 0.248E-23 0.492E+00
   0.311E-12 0.127E-11 -.685E+03   -.162E-10 -.549E-13 0.686E+03   -.331E-22 -.529E-22 -.294E+00
   0.780E-12 0.406E-12 -.685E+03   0.163E-10 -.888E-13 0.686E+03   0.993E-23 0.207E-22 -.294E+00
   0.251E-12 0.108E-11 -.204E+04   -.303E-11 -.426E-13 0.203E+04   -.496E-23 0.455E-23 0.606E+01
   0.887E-12 0.156E-11 -.204E+04   0.306E-11 -.111E-13 0.203E+04   -.827E-24 0.496E-23 0.606E+01
   0.120E-11 -.164E-12 0.205E+04   -.162E-10 0.736E-13 -.205E+04   0.109E-23 0.103E-24 -.703E+01
   -.368E-13 0.225E-12 0.205E+04   0.165E-10 0.409E-13 -.205E+04   0.207E-24 -.517E-24 -.703E+01
   0.116E-11 0.447E-11 0.680E+03   -.176E-10 0.150E-10 -.680E+03   -.207E-23 0.181E-23 0.492E+00
   -.449E-13 -.604E-13 0.680E+03   0.181E-10 -.148E-10 -.680E+03   0.827E-24 -.827E-24 0.492E+00
   0.118E-11 0.671E-13 -.685E+03   0.146E-11 -.149E-10 0.686E+03   -.199E-22 -.265E-22 -.294E+00
   -.394E-13 0.799E-12 -.685E+03   -.148E-11 0.148E-10 0.686E+03   0.505E-22 0.215E-22 -.294E+00
   0.122E-11 0.162E-11 -.204E+04   0.144E-11 0.150E-11 0.203E+04   0.165E-23 -.331E-23 0.606E+01
   -.306E-13 0.262E-12 -.204E+04   -.164E-11 -.155E-11 0.203E+04   0.103E-23 -.331E-23 0.606E+01
   0.120E-11 -.149E-11 0.205E+04   -.147E-10 -.149E-10 -.205E+04   -.414E-24 0.310E-24 -.703E+01
   -.280E-13 0.116E-11 0.205E+04   0.151E-10 0.150E-10 -.205E+04   -.827E-24 0.724E-24 -.703E+01
   0.118E-11 0.708E-12 0.680E+03   -.162E-10 0.164E-10 -.680E+03   -.538E-23 -.290E-23 0.492E+00
   -.483E-13 0.755E-12 0.680E+03   0.165E-10 -.162E-10 -.680E+03   -.827E-24 0.000E+00 0.492E+00
   0.118E-11 -.415E-11 -.685E+03   0.568E-13 -.568E-13 0.686E+03   0.124E-22 -.397E-22 -.294E+00
   -.420E-13 0.132E-11 -.685E+03   -.286E-13 -.853E-13 0.686E+03   0.265E-22 -.232E-22 -.294E+00
   0.124E-11 0.257E-11 -.204E+04   -.959E-13 -.782E-13 0.203E+04   0.476E-23 -.827E-24 0.606E+01
   -.230E-13 0.111E-11 -.204E+04   -.135E-12 -.389E-13 0.203E+04   0.620E-24 -.165E-23 0.606E+01
   0.138E-12 -.117E-13 0.509E+03   -.152E-12 -.879E-13 -.509E+03   0.827E-24 -.620E-23 -.923E-01
   0.313E-12 0.215E-11 0.509E+03   -.185E-12 -.826E-13 -.509E+03   0.165E-23 0.000E+00 -.923E-01
   0.874E-13 0.477E-12 0.154E+04   0.818E-11 -.846E-11 -.155E+04   0.145E-23 -.595E-24 0.349E+01
   0.364E-12 -.222E-12 0.154E+04   -.857E-11 0.830E-11 -.155E+04   0.414E-24 0.124E-23 0.349E+01
   0.691E-13 -.349E-12 -.155E+04   -.909E-12 -.859E-12 0.156E+04   -.116E-22 0.600E-23 -.513E+01
   0.379E-12 -.369E-11 -.155E+04   0.800E-12 0.788E-12 0.156E+04   -.165E-23 0.159E-22 -.513E+01
   0.125E-12 0.410E-12 -.507E+03   0.568E-13 -.568E-13 0.507E+03   -.132E-22 -.165E-22 0.360E+00
   0.309E-12 0.436E-13 -.507E+03   -.354E-13 0.724E-14 0.507E+03   0.662E-23 -.463E-22 0.360E+00
   0.133E-12 0.597E-12 0.509E+03   -.114E-12 0.743E-11 -.509E+03   0.207E-24 -.165E-23 -.923E-01
   0.303E-12 -.119E-11 0.509E+03   -.163E-12 -.767E-11 -.509E+03   0.372E-23 -.517E-23 -.923E-01
   0.729E-13 0.115E-11 0.154E+04   0.900E-11 -.657E-13 -.155E+04   0.827E-24 0.310E-24 0.349E+01
   0.366E-12 0.201E-13 0.154E+04   -.936E-11 -.262E-13 -.155E+04   0.207E-24 0.620E-24 0.349E+01
   0.480E-13 -.671E-13 -.155E+04   -.164E-11 0.213E-13 0.156E+04   0.248E-23 -.145E-22 -.513E+01
   0.378E-12 0.544E-12 -.155E+04   0.158E-11 -.195E-13 0.156E+04   0.662E-23 -.331E-23 -.513E+01
   0.107E-12 0.520E-12 -.507E+03   -.284E-13 0.426E-13 0.507E+03   0.000E+00 -.620E-23 0.360E+00
   0.294E-12 0.376E-12 -.507E+03   0.583E-13 0.355E-13 0.507E+03   -.414E-24 -.165E-22 0.360E+00
   0.486E-12 0.218E-13 0.509E+03   0.735E-11 -.489E-13 -.509E+03   0.414E-24 -.227E-23 -.923E-01
   -.508E-13 0.248E-12 0.509E+03   -.773E-11 -.355E-13 -.509E+03   -.165E-23 0.620E-23 -.923E-01
   0.482E-12 0.238E-11 0.154E+04   -.997E-12 -.845E-11 -.155E+04   -.145E-23 0.207E-24 0.349E+01
   -.208E-13 -.201E-12 0.154E+04   0.578E-12 0.833E-11 -.155E+04   0.207E-24 0.879E-24 0.349E+01
   0.452E-12 -.416E-12 -.155E+04   0.836E-12 -.818E-12 0.156E+04   -.579E-23 -.116E-22 -.513E+01
   -.458E-13 -.141E-12 -.155E+04   -.851E-12 0.838E-12 0.156E+04   -.579E-23 -.229E-22 -.513E+01
   0.467E-12 0.119E-11 -.507E+03   -.355E-13 -.142E-13 0.507E+03   -.629E-22 0.000E+00 0.360E+00
   -.559E-13 0.302E-13 -.507E+03   0.853E-13 0.703E-13 0.507E+03   -.331E-23 -.827E-23 0.360E+00
   0.489E-12 -.462E-11 0.509E+03   0.740E-11 0.747E-11 -.509E+03   -.207E-23 -.827E-24 -.923E-01
   -.388E-13 0.569E-12 0.509E+03   -.773E-11 -.761E-11 -.509E+03   0.000E+00 -.331E-23 -.923E-01
   0.499E-12 0.157E-11 0.154E+04   -.172E-12 -.222E-13 -.155E+04   0.207E-24 -.124E-23 0.349E+01
   -.204E-13 0.128E-12 0.154E+04   -.188E-12 0.617E-15 -.155E+04   0.620E-24 -.414E-24 0.349E+01
   0.453E-12 -.375E-11 -.155E+04   0.142E-13 0.710E-14 0.156E+04   -.248E-23 0.910E-23 -.513E+01
   -.588E-13 0.114E-12 -.155E+04   0.566E-13 0.284E-13 0.156E+04   0.165E-23 0.120E-22 -.513E+01
   0.482E-12 0.903E-12 -.507E+03   0.782E-13 0.853E-13 0.507E+03   -.364E-22 0.000E+00 0.360E+00
   -.414E-13 0.537E-13 -.507E+03   0.213E-13 0.497E-13 0.507E+03   -.397E-22 0.662E-23 0.360E+00
 -----------------------------------------------------------------------------------------------
   0.258E-10 0.193E-10 0.170E+02   -.135E-12 -.231E-12 0.296E-11   -.175E-21 -.273E-21 -.171E+02


 POSITION                                       TOTAL-FORCE (eV/Angst)
 -----------------------------------------------------------------------------------
      2.11679      0.00000      7.50000        -0.000000     -0.000000      0.391865
      4.23357      2.11679      7.50000        -0.000000     -0.000000      0.391865
      2.11679      2.11679      9.61679        -0.000000     -0.000000      0.020504
      4.23357      0.00000      9.61679         0.000000      0.000000      0.020504
      2.11679     -0.00000     11.74678         0.000000      0.000000     -0.001767
      4.23357      2.11679     11.74678        -0.000000      0.000000     -0.001767
      2.11679      2.11679     13.84639         0.000000     -0.000000     -0.000056
      4.23357      0.00000     13.84639         0.000000     -0.000000     -0.000056
      2.11679      4.23357      7.50000         0.000000     -0.000000      0.391865
      4.23357      6.35036      7.50000         0.000000      0.000000      0.391865
      2.11679      6.35036      9.61679        -0.000000      0.000000      0.020504
      4.23357      4.23357      9.61679         0.000000      0.000000      0.020504
      2.11679      4.23357     11.74678         0.000000      0.000000     -0.001767
      4.23357      6.35036     11.74678        -0.000000      0.000000     -0.001767
      2.11679      6.35036     13.84639         0.000000      0.000000     -0.000056
      4.23357      4.23357     13.84639         0.000000     -0.000000     -0.000056
      6.35036      0.00000      7.50000         0.000000     -0.000000      0.391865
      0.00000      2.11679      7.50000        -0.000000      0.000000      0.391865
      6.35036      2.11679      9.61679         0.000000      0.000000      0.020504
      0.00000      0.00000      9.61679         0.000000      0.000000      0.020504
      6.35036     -0.00000     11.74678        -0.000000     -0.000000     -0.001767
     -0.00000      2.11679     11.74678        -0.000000     -0.000000     -0.001767
      6.35036      2.11679     13.84639         0.000000      0.000000     -0.000056
     -0.00000      0.00000     13.84639         0.000000      0.000000     -0.000056
      6.35036      4.23357      7.50000         0.000000     -0.000000      0.391865
      0.00000      6.35036      7.50000        -0.000000      0.000000      0.391865
      6.35036      6.35036      9.61679         0.000000     -0.000000      0.020504
      0.00000      4.23357      9.61679         0.000000      0.000000      0.020504
      6.35036      4.23357     11.74678         0.000000     -0.000000     -0.001767
      0.00000      6.35036     11.74678        -0.000000     -0.000000     -0.001767
      6.35036      6.35036     13.84639         0.000000      0.000000     -0.000056
     -0.00000      4.23357     13.84639         0.000000     -0.000000     -0.000056
      2.11679      0.00000      9.61679         0.000000      0.000000      0.061187
      4.23357      2.11679      9.61679         0.000000      0.000000      0.061187
      2.11679      2.11679      7.50000         0.000000      0.000000     -0.476043
      4.23357      0.00000      7.50000         0.000000      0.000000     -0.476043
      2.11679     -0.00000     13.89450         0.000000      0.000000     -0.000840
      4.23357      2.11679     13.89450        -0.000000      0.000000     -0.000840
      2.11679      2.11679     11.73874        -0.000000      0.000000      0.005150
      4.23357      0.00000     11.73874         0.000000     -0.000000      0.005150
      2.11679      4.23357      9.61679         0.000000      0.000000      0.061187
      4.23357      6.35036      9.61679         0.000000      0.000000      0.061187
      2.11679      6.35036      7.50000         0.000000      0.000000     -0.476043
      4.23357      4.23357      7.50000        -0.000000      0.000000     -0.476043
      2.11679      4.23357     13.89450        -0.000000     -0.000000     -0.000840
      4.23357      6.35036     13.89450        -0.000000      0.000000     -0.000840
      2.11679      6.35036     11.73874         0.000000     -0.000000      0.005150
      4.23357      4.23357     11.73874         0.000000      0.000000      0.005150
      6.35036      0.00000      9.61679        -0.000000      0.000000      0.061187
      0.00000      2.11679      9.61679         0.000000      0.000000      0.061187
      6.35036      2.11679      7.50000        -0.000000      0.000000     -0.476043
      0.00000      0.00000      7.50000        -0.000000      0.000000     -0.476043
      6.35036     -0.00000     13.89450         0.000000      0.000000     -0.000840
     -0.00000      2.11679     13.89450        -0.000000      0.000000     -0.000840
      6.35036      2.11679     11.73874         0.000000      0.000000      0.005150
     -0.00000      0.00000     11.73874         0.000000     -0.000000      0.005150
      6.35036      4.23357      9.61679        -0.000000      0.000000      0.061187
      0.00000      6.35036      9.61679         0.000000      0.000000      0.061187
      6.35036      6.35036      7.50000        -0.000000     -0.000000     -0.476043
      0.00000      4.23357      7.50000         0.000000     -0.000000     -0.476043
      6.35036      4.23357     13.89450         0.000000     -0.000000     -0.000840
     -0.00000      6.35036     13.89450        -0.000000     -0.000000     -0.000840
      6.35036      6.35036     11.73874         0.000000     -0.000000      0.005150
     -0.00000      4.23357     11.73874        -0.000000     -0.000000      0.005150
 -----------------------------------------------------------------------------------
    total drift:                                0.000000      0.000000     -0.056471


--------------------------------------------------------------------------------------------------------



  FREE ENERGIE OF THE ION-ELECTRON SYSTEM (eV)
  ---------------------------------------------------
  free  energy   TOTEN  =      -375.65326358 eV

  energy  without entropy=     -375.65326358  energy(sigma->0) =     -375.65326358

 d Force = 0.5162793E-04[-0.114E-04, 0.115E-03]  d Energy = 0.5816351E-04-0.654E-05
 d Force =-0.1413607E+02[-0.141E+02,-0.141E+02]  d Ewald  =-0.1413607E+02-0.668E-07


--------------------------------------------------------------------------------------------------------


    POTLOK:  cpu time      0.1384: real time      0.1384


--------------------------------------------------------------------------------------------------------




--------------------------------------------------------------------------------------------------------


  
 reached required accuracy - stopping structural energy minimisation
     LOOP+:  cpu time     13.6287: real time     13.6845
    4ORBIT:  cpu time      0.0000: real time      0.0000

 total amount of memory used by VASP MPI-rank0    70024. kBytes
=======================================================================

   base      :      30000. kBytes
   nonl-proj :      21199. kBytes
   fftplans  :       3858. kBytes
   grid      :       5439. kBytes
   one-center:        129. kBytes
   wavefun   :       9399. kBytes

  
  
 General timing and accounting informations for this job:
 ========================================================
  
                  Total CPU time used (sec):      219.553
                            User time (sec):      217.633
                          System time (sec):        1.919
                         Elapsed time (sec):      224.637
  
                   Maximum memory used (kb):      168416.
                   Average memory used (kb):          N/A
  
                          Minor page faults:        33203
                          Major page faults:           53
                 Voluntary context switches:        11972
