 vasp.6.3.0 20Jan22 (build Apr  1 2022 16:44:48) complex                         
 executed on        HPECrayEX_GCC date 2023.05.17  21:49:22
 running  512 mpi-ranks, with    1 threads/rank
 distrk:  each k-point on  256 cores,    2 groups
 distr:  one band on NCORE=   4 cores,   64 groups


--------------------------------------------------------------------------------------------------------


 INCAR:
   SYSTEM = MgO-rocksalt
   ISMEAR = 0
   SIGMA = 0.05
   EDIFF = 1E-6
   ALGO = ALL
   ISTART = 0
   IBRION = -1
   NSW = 0
   ISYM = 2
   ISIF = 2
   EDIFFG = -0.01
   DIPOL = 0.5 0.5 0.5
   IDIPOL = 3
   LDIPOL = .TRUE.
   GGA = MK
   LUSE_VDW = .TRUE.
   PARAM1 = 0.1234
   PARAM2 = 0.711357
   ZAB_VDW = -1.8867
   AGGAC = 0.0
   ENCUT = 600
   PREC = Normal
   LASPH = .TRUE.
   LREAL = .FALSE.
   ISPIN = 1
   NELM = 200
   NELMIN = 8
   NCORE = 4
   KPAR = 2
   LWAVE = .FALSE.
   LCHARG = .FALSE.

 POTCAR:    PAW_PBE C 08Apr2002                   
 POTCAR:    PAW_PBE O 08Apr2002                   
 POTCAR:    PAW_PBE Mg_pv 13Apr2007               
 POTCAR:    PAW_PBE O 08Apr2002                   
 -----------------------------------------------------------------------------
|                                                                             |
|               ----> ADVICE to this user running VASP <----                  |
|                                                                             |
|     You have switched on vdW-DFT.                                           |
|     This routine was written and supplied by Jiri Klimes. We recommend      |
|     that you carefully read and cite the following publications:            |
|       J. Klimes, D.R. Bowler, A. Michelides                                 |
|          J. Phys.: Cond Matt. 22 022201 (2010)                              |
|       J. Klimes, D.R. Bowler, A. Michelides                                 |
|          Phys. Rev. B. 83, 195131 (2011)                                    |
|     and references therein.                                                 |
|                                                                             |
 -----------------------------------------------------------------------------

 POTCAR:    PAW_PBE C 08Apr2002                   
   SHA256 =  253f7b50bb8d59471dbedb8285d89021f4a42ed1a2c5d38a03a736e69125dd95 C/POTCAR              
   COPYR  = (c) Copyright 08Apr2002 Georg Kresse                                                    
   COPYR  = This file is part of the software VASP. Any use, copying, and all other rights are regul
   COPYR  = If you do not have a valid VASP license, you may not use, copy or distribute this file. 
   VRHFIN =C: s2p2                                                                                  
   LEXCH  = PE                                                                                      
   EATOM  =   147.1560 eV,   10.8157 Ry                                                             
                                                                                                    
   TITEL  = PAW_PBE C 08Apr2002                                                                     
   LULTRA =        F    use ultrasoft PP ?                                                          
   IUNSCR =        1    unscreen: 0-lin 1-nonlin 2-no                                               
   RPACOR =    1.200    partial core radius                                                         
   POMASS =   12.011; ZVAL   =    4.000    mass and valenz                                          
   RCORE  =    1.500    outmost cutoff radius                                                       
   RWIGS  =    1.630; RWIGS  =    0.863    wigner-seitz radius (au A)                               
   ENMAX  =  400.000; ENMIN  =  300.000 eV                                                          
   ICORE  =        2    local potential                                                             
   LCOR   =        T    correct aug charges                                                         
   LPAW   =        T    paw PP                                                                      
   EAUG   =  644.873                                                                                
   DEXC   =    0.000                                                                                
   RMAX   =    1.529    core radius for proj-oper                                                   
   RAUG   =    1.300    factor for augmentation sphere                                              
   RDEP   =    1.501    radius for radial grids                                                     
   RDEPT  =    1.300    core radius for aug-charge                                                  
                                                                                                    
   Atomic configuration                                                                             
    4 entries                                                                                       
     n  l   j            E        occ.                                                              
     1  0  0.50      -273.3789   2.0000                                                             
     2  0  0.50       -13.7508   2.0000                                                             
     2  1  0.50        -5.2854   2.0000                                                             
     3  2  1.50        -5.4423   0.0000                                                             
   Description                                                                                      
     l       E           TYP  RCUT    TYP  RCUT                                                     
     0    -13.7508458     23  1.200                                                                 
     0     -8.2022199     23  1.200                                                                 
     1     -5.2854383     23  1.500                                                                 
     1     34.0145650     23  1.500                                                                 
     2     -5.4423304      7  1.500                                                                 
  local pseudopotential read in
  partial core-charges read in
  partial kinetic energy density read in
  atomic valenz-charges read in
  non local Contribution for L=           0  read in
    real space projection operators read in
  non local Contribution for L=           0  read in
    real space projection operators read in
  non local Contribution for L=           1  read in
    real space projection operators read in
  non local Contribution for L=           1  read in
    real space projection operators read in
    PAW grid and wavefunctions read in

   number of l-projection  operators is LMAX  =           4
   number of lm-projection operators is LMMAX =           8

 POTCAR:    PAW_PBE O 08Apr2002                   
   SHA256 =  818f92134a0a090dccd8ba1447fa70422a3b330e708bb4f08108d8ae51209ddf O/POTCAR              
   COPYR  = (c) Copyright 08Apr2002 Georg Kresse                                                    
   COPYR  = This file is part of the software VASP. Any use, copying, and all other rights are regul
   COPYR  = If you do not have a valid VASP license, you may not use, copy or distribute this file. 
   VRHFIN =O: s2p4                                                                                  
   LEXCH  = PE                                                                                      
   EATOM  =   432.3788 eV,   31.7789 Ry                                                             
                                                                                                    
   TITEL  = PAW_PBE O 08Apr2002                                                                     
   LULTRA =        F    use ultrasoft PP ?                                                          
   IUNSCR =        1    unscreen: 0-lin 1-nonlin 2-no                                               
   RPACOR =    1.200    partial core radius                                                         
   POMASS =   16.000; ZVAL   =    6.000    mass and valenz                                          
   RCORE  =    1.520    outmost cutoff radius                                                       
   RWIGS  =    1.550; RWIGS  =    0.820    wigner-seitz radius (au A)                               
   ENMAX  =  400.000; ENMIN  =  300.000 eV                                                          
   ICORE  =        2    local potential                                                             
   LCOR   =        T    correct aug charges                                                         
   LPAW   =        T    paw PP                                                                      
   EAUG   =  605.392                                                                                
   DEXC   =    0.000                                                                                
   RMAX   =    1.553    core radius for proj-oper                                                   
   RAUG   =    1.300    factor for augmentation sphere                                              
   RDEP   =    1.550    radius for radial grids                                                     
   RDEPT  =    1.329    core radius for aug-charge                                                  
                                                                                                    
   Atomic configuration                                                                             
    4 entries                                                                                       
     n  l   j            E        occ.                                                              
     1  0  0.50      -514.6923   2.0000                                                             
     2  0  0.50       -23.9615   2.0000                                                             
     2  1  0.50        -9.0305   4.0000                                                             
     3  2  1.50        -9.5241   0.0000                                                             
   Description                                                                                      
     l       E           TYP  RCUT    TYP  RCUT                                                     
     0    -23.9615318     23  1.200                                                                 
     0     -9.5240782     23  1.200                                                                 
     1     -9.0304911     23  1.520                                                                 
     1      8.1634956     23  1.520                                                                 
     2     -9.5240782      7  1.500                                                                 
  local pseudopotential read in
  partial core-charges read in
  partial kinetic energy density read in
  kinetic energy density of atom read in
  atomic valenz-charges read in
  non local Contribution for L=           0  read in
    real space projection operators read in
  non local Contribution for L=           0  read in
    real space projection operators read in
  non local Contribution for L=           1  read in
    real space projection operators read in
  non local Contribution for L=           1  read in
    real space projection operators read in
    PAW grid and wavefunctions read in

   number of l-projection  operators is LMAX  =           4
   number of lm-projection operators is LMMAX =           8

 POTCAR:    PAW_PBE Mg_pv 13Apr2007               
   SHA256 =  f474ac0dd33840b9ae76c01d57fea79fdf77cdfbb07d5ade72c65f83c709b62b Mg_pv/POTCAR          
   COPYR  = (c) Copyright 13Apr2007 Georg Kresse                                                    
   COPYR  = This file is part of the software VASP. Any use, copying, and all other rights are regul
   COPYR  = If you do not have a valid VASP license, you may not use, copy or distribute this file. 
   VRHFIN =Mg: p6s2                                                                                 
   LEXCH  = PE                                                                                      
   EATOM  =  1056.7344 eV,   77.6678 Ry                                                             
                                                                                                    
   TITEL  = PAW_PBE Mg_pv 13Apr2007                                                                 
   LULTRA =        F    use ultrasoft PP ?                                                          
   IUNSCR =        1    unscreen: 0-lin 1-nonlin 2-no                                               
   RPACOR =    1.500    partial core radius                                                         
   POMASS =   24.305; ZVAL   =    8.000    mass and valenz                                          
   RCORE  =    2.000    outmost cutoff radius                                                       
   RWIGS  =    2.000; RWIGS  =    1.058    wigner-seitz radius (au A)                               
   ENMAX  =  403.929; ENMIN  =  302.947 eV                                                          
   RCLOC  =    1.506    cutoff for local pot                                                        
   LCOR   =        T    correct aug charges                                                         
   LPAW   =        T    paw PP                                                                      
   EAUG   =  758.780                                                                                
   DEXC   =    0.000                                                                                
   RMAX   =    2.045    core radius for proj-oper                                                   
   RAUG   =    1.300    factor for augmentation sphere                                              
   RDEP   =    2.025    radius for radial grids                                                     
   RDEPT  =    1.557    core radius for aug-charge                                                  
                                                                                                    
   Atomic configuration                                                                             
    5 entries                                                                                       
     n  l   j            E        occ.                                                              
     1  0  0.50     -1259.6230   2.0000                                                             
     2  0  0.50       -79.8442   2.0000                                                             
     2  1  1.50       -46.6121   6.0000                                                             
     3  0  0.50        -4.7055   2.0000                                                             
     3  2  1.50        -1.3606   0.0000                                                             
   Description                                                                                      
     l       E           TYP  RCUT    TYP  RCUT                                                     
     1    -46.6121073     23  1.600                                                                 
     1      2.7211652     23  1.600                                                                 
     0     -4.7054661     23  2.000                                                                 
     0     61.2262170     23  2.000                                                                 
     2     -1.3605826     23  2.000                                                                 
  local pseudopotential read in
  partial core-charges read in
  partial kinetic energy density read in
  atomic valenz-charges read in
  non local Contribution for L=           1  read in
    real space projection operators read in
  non local Contribution for L=           1  read in
    real space projection operators read in
  non local Contribution for L=           0  read in
    real space projection operators read in
  non local Contribution for L=           0  read in
    real space projection operators read in
  non local Contribution for L=           2  read in
    real space projection operators read in
    PAW grid and wavefunctions read in

   number of l-projection  operators is LMAX  =           5
   number of lm-projection operators is LMMAX =          13

 POTCAR:    PAW_PBE O 08Apr2002                   
   SHA256 =  818f92134a0a090dccd8ba1447fa70422a3b330e708bb4f08108d8ae51209ddf O/POTCAR              
   COPYR  = (c) Copyright 08Apr2002 Georg Kresse                                                    
   COPYR  = This file is part of the software VASP. Any use, copying, and all other rights are regul
   COPYR  = If you do not have a valid VASP license, you may not use, copy or distribute this file. 
   VRHFIN =O: s2p4                                                                                  
   LEXCH  = PE                                                                                      
   EATOM  =   432.3788 eV,   31.7789 Ry                                                             
                                                                                                    
   TITEL  = PAW_PBE O 08Apr2002                                                                     
   LULTRA =        F    use ultrasoft PP ?                                                          
   IUNSCR =        1    unscreen: 0-lin 1-nonlin 2-no                                               
   RPACOR =    1.200    partial core radius                                                         
   POMASS =   16.000; ZVAL   =    6.000    mass and valenz                                          
   RCORE  =    1.520    outmost cutoff radius                                                       
   RWIGS  =    1.550; RWIGS  =    0.820    wigner-seitz radius (au A)                               
   ENMAX  =  400.000; ENMIN  =  300.000 eV                                                          
   ICORE  =        2    local potential                                                             
   LCOR   =        T    correct aug charges                                                         
   LPAW   =        T    paw PP                                                                      
   EAUG   =  605.392                                                                                
   DEXC   =    0.000                                                                                
   RMAX   =    1.553    core radius for proj-oper                                                   
   RAUG   =    1.300    factor for augmentation sphere                                              
   RDEP   =    1.550    radius for radial grids                                                     
   RDEPT  =    1.329    core radius for aug-charge                                                  
                                                                                                    
   Atomic configuration                                                                             
    4 entries                                                                                       
     n  l   j            E        occ.                                                              
     1  0  0.50      -514.6923   2.0000                                                             
     2  0  0.50       -23.9615   2.0000                                                             
     2  1  0.50        -9.0305   4.0000                                                             
     3  2  1.50        -9.5241   0.0000                                                             
   Description                                                                                      
     l       E           TYP  RCUT    TYP  RCUT                                                     
     0    -23.9615318     23  1.200                                                                 
     0     -9.5240782     23  1.200                                                                 
     1     -9.0304911     23  1.520                                                                 
     1      8.1634956     23  1.520                                                                 
     2     -9.5240782      7  1.500                                                                 
  local pseudopotential read in
  partial core-charges read in
  partial kinetic energy density read in
  kinetic energy density of atom read in
  atomic valenz-charges read in
  non local Contribution for L=           0  read in
    real space projection operators read in
  non local Contribution for L=           0  read in
    real space projection operators read in
  non local Contribution for L=           1  read in
    real space projection operators read in
  non local Contribution for L=           1  read in
    real space projection operators read in
    PAW grid and wavefunctions read in

   number of l-projection  operators is LMAX  =           4
   number of lm-projection operators is LMMAX =           8

 -----------------------------------------------------------------------------
|                                                                             |
|               ----> ADVICE to this user running VASP <----                  |
|                                                                             |
|     You have a (more or less) 'large supercell' and for larger cells it     |
|     might be more efficient to use real-space projection operators.         |
|     Therefore, try LREAL= Auto in the INCAR file.                           |
|     Mind: For very accurate calculation, you might also keep the            |
|     reciprocal projection scheme (i.e. LREAL=.FALSE.).                      |
|                                                                             |
 -----------------------------------------------------------------------------

 -----------------------------------------------------------------------------
|                                                                             |
|               ----> ADVICE to this user running VASP <----                  |
|                                                                             |
|     You enforced a specific xc type in the INCAR file but a different       |
|     type was found in the POTCAR file.                                      |
|     I HOPE YOU KNOW WHAT YOU ARE DOING!                                     |
|                                                                             |
 -----------------------------------------------------------------------------

  PAW_PBE C 08Apr2002                   :
 energy of atom  1       EATOM= -147.1560
 kinetic energy error for atom=    0.0057 (will be added to EATOM!!)
  PAW_PBE O 08Apr2002                   :
 energy of atom  2       EATOM= -432.3788
 kinetic energy error for atom=    0.0168 (will be added to EATOM!!)
  PAW_PBE Mg_pv 13Apr2007               :
 energy of atom  3       EATOM=-1056.7344
 kinetic energy error for atom=    0.0221 (will be added to EATOM!!)
  PAW_PBE O 08Apr2002                   :
 energy of atom  4       EATOM= -432.3788
 kinetic energy error for atom=    0.0168 (will be added to EATOM!!)


 POSCAR:  C  O Mg  O
  positions in direct lattice
  No initial velocities read in
 exchange correlation table for  LEXCH =       43
   RHO(1)=    0.500       N(1)  =     2000
   RHO(2)=  100.500       N(2)  =     4000



--------------------------------------------------------------------------------------------------------


 ion  position               nearest neighbor table
   1  0.500  0.500  0.772-   2 1.15
   2  0.500  0.500  0.825-   1 1.15
   3  0.000  0.750  0.352-  35 2.11  37 2.11  38 2.11  45 2.11  54 2.11
   4  0.250  0.000  0.352-  36 2.11  37 2.11  38 2.11  46 2.11  53 2.11
   5  0.000  0.000  0.451-  37 2.11  36 2.11  35 2.11  43 2.11  52 2.11  41 2.12
   6  0.250  0.750  0.451-  38 2.11  36 2.11  35 2.11  44 2.11  51 2.11  42 2.12
   7  0.000  0.750  0.550-  49 2.11  42 2.11  58 2.11  41 2.11  35 2.12  39 2.15
   8  0.250  0.000  0.550-  57 2.11  50 2.11  42 2.11  41 2.11  36 2.12  40 2.15
   9  0.000  0.000  0.649-  39 2.11  40 2.11  47 2.11  56 2.11  41 2.11
  10  0.250  0.750  0.649-  42 2.11  40 2.11  39 2.11  48 2.11  55 2.11
  11  0.000  0.250  0.352-  43 2.11  37 2.11  45 2.11  46 2.11  62 2.11
  12  0.250  0.500  0.352-  44 2.11  38 2.11  45 2.11  46 2.11  61 2.11
  13  0.000  0.500  0.451-  45 2.11  43 2.11  44 2.11  35 2.11  60 2.11  49 2.12
  14  0.250  0.250  0.451-  46 2.11  43 2.11  44 2.11  36 2.11  59 2.11  50 2.12
  15  0.000  0.250  0.550-  49 2.11  50 2.11  66 2.11  41 2.11  43 2.12  47 2.15
  16  0.250  0.500  0.550-  65 2.11  50 2.11  42 2.11  49 2.11  44 2.13  48 2.15
  17  0.000  0.500  0.649-  48 2.10  64 2.10  49 2.11  47 2.11  39 2.11
  18  0.250  0.250  0.649-  50 2.11  47 2.11  40 2.11  48 2.11  63 2.11
  19  0.500  0.750  0.352-  51 2.11  38 2.11  53 2.11  54 2.11  61 2.11
  20  0.750  0.000  0.352-  52 2.11  37 2.11  53 2.11  54 2.11  62 2.11
  21  0.500  0.000  0.451-  53 2.11  51 2.11  52 2.11  36 2.11  59 2.11  57 2.12
  22  0.750  0.750  0.451-  54 2.11  51 2.11  52 2.11  35 2.11  60 2.11  58 2.12
  23  0.500  0.750  0.550-  65 2.11  58 2.11  42 2.11  57 2.11  51 2.13  55 2.15
  24  0.750  0.000  0.550-  57 2.11  58 2.11  66 2.11  41 2.11  52 2.12  56 2.15
  25  0.500  0.000  0.649-  55 2.10  63 2.10  57 2.11  40 2.11  56 2.11
  26  0.750  0.750  0.649-  58 2.11  56 2.11  39 2.11  55 2.11  64 2.11
  27  0.500  0.250  0.352-  59 2.11  53 2.11  46 2.11  61 2.11  62 2.11
  28  0.750  0.500  0.352-  60 2.11  54 2.11  45 2.11  61 2.11  62 2.11
  29  0.500  0.500  0.451-  61 2.11  51 2.11  59 2.11  60 2.11  44 2.11  65 2.13
  30  0.750  0.250  0.451-  62 2.11  52 2.11  59 2.11  60 2.11  43 2.11  66 2.12
  31  0.500  0.250  0.550-  65 2.11  50 2.11  66 2.11  57 2.11  59 2.13  63 2.15
  32  0.750  0.500  0.550-  65 2.11  58 2.11  66 2.11  49 2.11  60 2.13  64 2.15
  33  0.500  0.500  0.651-  48 2.12  55 2.12  63 2.12  64 2.12  65 2.14
  34  0.750  0.250  0.649-  66 2.11  56 2.11  47 2.11  64 2.11  63 2.11
  35  0.000  0.750  0.451-   3 2.11   5 2.11   6 2.11  13 2.11  22 2.11   7 2.12
  36  0.250  0.000  0.451-   4 2.11   5 2.11   6 2.11  14 2.11  21 2.11   8 2.12
  37  0.000  0.000  0.352-   5 2.11   4 2.11   3 2.11  11 2.11  20 2.11
  38  0.250  0.750  0.352-   6 2.11   4 2.11   3 2.11  12 2.11  19 2.11
  39  0.000  0.750  0.651-   9 2.11  10 2.11  26 2.11  17 2.11   7 2.15
  40  0.250  0.000  0.651-   9 2.11  10 2.11  18 2.11  25 2.11   8 2.15
  41  0.000  0.000  0.550-   9 2.11   8 2.11   7 2.11  15 2.11  24 2.11   5 2.12
  42  0.250  0.750  0.550-  10 2.11   8 2.11   7 2.11  16 2.11  23 2.11   6 2.12
  43  0.000  0.250  0.451-  11 2.11   5 2.11  13 2.11  14 2.11  30 2.11  15 2.12
  44  0.250  0.500  0.451-  12 2.11   6 2.11  13 2.11  14 2.11  29 2.11  16 2.13
  45  0.000  0.500  0.352-  13 2.11  11 2.11  12 2.11   3 2.11  28 2.11
  46  0.250  0.250  0.352-  14 2.11  11 2.11  12 2.11   4 2.11  27 2.11
  47  0.000  0.250  0.651-   9 2.11  18 2.11  34 2.11  17 2.11  15 2.15
  48  0.249  0.500  0.651-  17 2.10  10 2.11  18 2.11  33 2.12  16 2.15
  49  0.000  0.500  0.550-  17 2.11  15 2.11   7 2.11  16 2.11  32 2.11  13 2.12
  50  0.250  0.250  0.550-  18 2.11  15 2.11   8 2.11  16 2.11  31 2.11  14 2.12
  51  0.500  0.750  0.451-  19 2.11   6 2.11  21 2.11  22 2.11  29 2.11  23 2.13
  52  0.750  0.000  0.451-  20 2.11   5 2.11  21 2.11  22 2.11  30 2.11  24 2.12
  53  0.500  0.000  0.352-  21 2.11  19 2.11  20 2.11   4 2.11  27 2.11
  54  0.750  0.750  0.352-  22 2.11  19 2.11  20 2.11   3 2.11  28 2.11
  55  0.500  0.751  0.651-  25 2.10  10 2.11  26 2.11  33 2.12  23 2.15
  56  0.750  0.000  0.651-   9 2.11  26 2.11  34 2.11  25 2.11  24 2.15
  57  0.500  0.000  0.550-  25 2.11  24 2.11   8 2.11  23 2.11  31 2.11  21 2.12
  58  0.750  0.750  0.550-  26 2.11  24 2.11   7 2.11  32 2.11  23 2.11  22 2.12
  59  0.500  0.250  0.451-  27 2.11  21 2.11  14 2.11  29 2.11  30 2.11  31 2.13
  60  0.750  0.500  0.451-  28 2.11  22 2.11  13 2.11  29 2.11  30 2.11  32 2.13
  61  0.500  0.500  0.352-  29 2.11  19 2.11  27 2.11  28 2.11  12 2.11
  62  0.750  0.250  0.352-  30 2.11  20 2.11  27 2.11  28 2.11  11 2.11
  63  0.500  0.249  0.651-  25 2.10  18 2.11  34 2.11  33 2.12  31 2.15
  64  0.751  0.500  0.651-  17 2.10  26 2.11  34 2.11  33 2.12  32 2.15
  65  0.500  0.500  0.550-  16 2.11  23 2.11  31 2.11  32 2.11  29 2.13  33 2.14
  66  0.750  0.250  0.550-  34 2.11  24 2.11  15 2.11  32 2.11  31 2.11  30 2.12

  LATTYP: Found a simple tetragonal cell.
 ALAT       =     8.4409846542
 C/A-ratio  =     2.5270438657
  
  Lattice vectors:
  
 A1 = (   8.4409846542,   0.0000000000,   0.0000000000)
 A2 = (   0.0000000000,   8.4409846542,   0.0000000000)
 A3 = (   0.0000000000,   0.0000000000,  21.3307384906)


Analysis of symmetry for initial positions (statically):
=====================================================================
 Subroutine PRICEL returns:
 Original cell was already a primitive cell.
 

 Routine SETGRP: Setting up the symmetry group for a 
 simple tetragonal supercell.


 Subroutine GETGRP returns: Found  8 space group operations
 (whereof  8 operations were pure point group operations)
 out of a pool of 16 trial point group operations.


The static configuration has the point symmetry C_4v.


Analysis of symmetry for dynamics (positions and initial velocities):
=====================================================================
 Subroutine PRICEL returns:
 Original cell was already a primitive cell.
 

 Routine SETGRP: Setting up the symmetry group for a 
 simple tetragonal supercell.


 Subroutine GETGRP returns: Found  8 space group operations
 (whereof  8 operations were pure point group operations)
 out of a pool of 16 trial point group operations.


The dynamic configuration has the point symmetry C_4v.


 Subroutine INISYM returns: Found  8 space group operations
 (whereof  8 operations are pure point group operations),
 and found     1 'primitive' translations


----------------------------------------------------------------------------------------

                                     Primitive cell                                     

  volume of cell :    1519.8199

  direct lattice vectors                    reciprocal lattice vectors
     8.440984654  0.000000000  0.000000000     0.118469591  0.000000000  0.000000000
     0.000000000  8.440984654  0.000000000     0.000000000  0.118469591  0.000000000
     0.000000000  0.000000000 21.330738491     0.000000000  0.000000000  0.046880702

  length of vectors
     8.440984654  8.440984654 21.330738491     0.118469591  0.118469591  0.046880702

  position of ions in fractional coordinates (direct lattice)
     0.500000000  0.500000000  0.771569172
     0.500000000  0.500000000  0.825332890
     0.000000000  0.750000000  0.351605267
     0.250000000  0.000000000  0.351605267
     0.000000000  0.000000000  0.450535089
     0.250000000  0.750000000  0.450535089
     0.000000000  0.749939268  0.550083239
     0.250060732  0.000000000  0.550083239
     0.000000000  0.000000000  0.648745309
     0.249858327  0.750141673  0.648569547
     0.000000000  0.250000000  0.351605267
     0.250000000  0.500000000  0.351605267
     0.000000000  0.500000000  0.450535089
     0.250000000  0.250000000  0.450535089
     0.000000000  0.250060732  0.550083239
     0.250378379  0.500000000  0.550219524
     0.000000000  0.500000000  0.648615280
     0.249858327  0.249858327  0.648569547
     0.500000000  0.750000000  0.351605267
     0.750000000  0.000000000  0.351605267
     0.500000000  0.000000000  0.450535089
     0.750000000  0.750000000  0.450535089
     0.500000000  0.749621621  0.550219524
     0.749939268  0.000000000  0.550083239
     0.500000000  0.000000000  0.648615280
     0.750141673  0.750141673  0.648569547
     0.500000000  0.250000000  0.351605267
     0.750000000  0.500000000  0.351605267
     0.500000000  0.500000000  0.450535089
     0.750000000  0.250000000  0.450535089
     0.500000000  0.250378379  0.550219524
     0.749621621  0.500000000  0.550219524
     0.500000000  0.500000000  0.650616960
     0.750141673  0.249858327  0.648569547
     0.000000000  0.750000000  0.450535089
     0.250000000  0.000000000  0.450535089
     0.000000000  0.000000000  0.351605267
     0.250000000  0.750000000  0.351605267
     0.000000000  0.750218533  0.650979255
     0.249781467  0.000000000  0.650979255
     0.000000000  0.000000000  0.549809890
     0.249945770  0.750054230  0.549859113
     0.000000000  0.250000000  0.450535089
     0.250000000  0.500000000  0.450535089
     0.000000000  0.500000000  0.351605267
     0.250000000  0.250000000  0.351605267
     0.000000000  0.249781467  0.650979255
     0.248822710  0.500000000  0.650882872
     0.000000000  0.500000000  0.549762666
     0.249945770  0.249945770  0.549859113
     0.500000000  0.750000000  0.450535089
     0.750000000  0.000000000  0.450535089
     0.500000000  0.000000000  0.351605267
     0.750000000  0.750000000  0.351605267
     0.500000000  0.751177290  0.650882872
     0.750218533  0.000000000  0.650979255
     0.500000000  0.000000000  0.549762666
     0.750054230  0.750054230  0.549859113
     0.500000000  0.250000000  0.450535089
     0.750000000  0.500000000  0.450535089
     0.500000000  0.500000000  0.351605267
     0.750000000  0.250000000  0.351605267
     0.500000000  0.248822710  0.650882872
     0.751177290  0.500000000  0.650882872
     0.500000000  0.500000000  0.550231357
     0.750054230  0.249945770  0.549859113

  ion indices of the primitive-cell ions
   primitive index   ion index
                 1           1
                 2           2
                 3           3
                 4           4
                 5           5
                 6           6
                 7           7
                 8           8
                 9           9
                10          10
                11          11
                12          12
                13          13
                14          14
                15          15
                16          16
                17          17
                18          18
                19          19
                20          20
                21          21
                22          22
                23          23
                24          24
                25          25
                26          26
                27          27
                28          28
                29          29
                30          30
                31          31
                32          32
                33          33
                34          34
                35          35
                36          36
                37          37
                38          38
                39          39
                40          40
                41          41
                42          42
                43          43
                44          44
                45          45
                46          46
                47          47
                48          48
                49          49
                50          50
                51          51
                52          52
                53          53
                54          54
                55          55
                56          56
                57          57
                58          58
                59          59
                60          60
                61          61
                62          62
                63          63
                64          64
                65          65
                66          66

----------------------------------------------------------------------------------------



 KPOINTS: pymatgen v2020.8.13 with grid density = 

Automatic generation of k-mesh.
 Grid dimensions read from file:
 generate k-points for:    2    2    1

 Generating k-lattice:

  Cartesian coordinates                     Fractional coordinates (reciprocal lattice)
     0.059234796  0.000000000  0.000000000     0.500000000  0.000000000  0.000000000
     0.000000000  0.059234796  0.000000000     0.000000000  0.500000000  0.000000000
     0.000000000  0.000000000  0.046880702     0.000000000  0.000000000  1.000000000

  Length of vectors
     0.059234796  0.059234796  0.046880702

  Shift w.r.t. Gamma in fractional coordinates (k-lattice)
     0.000000000  0.000000000  0.000000000

 
 Subroutine IBZKPT returns following result:
 ===========================================
 
 Found      3 irreducible k-points:
 
 Following reciprocal coordinates:
            Coordinates               Weight
  0.000000  0.000000  0.000000      1.000000
  0.500000  0.000000  0.000000      2.000000
  0.500000  0.500000  0.000000      1.000000
 
 Following cartesian coordinates:
            Coordinates               Weight
  0.000000  0.000000  0.000000      1.000000
  0.059235  0.000000  0.000000      2.000000
  0.059235  0.059235  0.000000      1.000000
 


--------------------------------------------------------------------------------------------------------




 Dimension of arrays:
   k-points           NKPTS =      3   k-points in BZ     NKDIM =      3   number of bands    NBANDS=    320
   number of dos      NEDOS =    301   number of ions     NIONS =     66
   non local maximal  LDIM  =      5   non local SUM 2l+1 LMDIM =     13
   total plane-waves  NPLWV = 373248
   max r-space proj   IRMAX =      1   max aug-charges    IRDMAX=   5039
   dimension x,y,z NGX =    54 NGY =   54 NGZ =  128
   dimension x,y,z NGXF=   108 NGYF=  108 NGZF=  256
   support grid    NGXF=   108 NGYF=  108 NGZF=  256
   ions per type =               1   1  32  32
   NGX,Y,Z   is equivalent  to a cutoff of  10.64, 10.64,  9.98 a.u.
   NGXF,Y,Z  is equivalent  to a cutoff of  21.27, 21.27, 19.95 a.u.

 SYSTEM =  MgO-rocksalt                            
 POSCAR =   C  O Mg  O                             

 Startparameter for this run:
   NWRITE =      2    write-flag & timer
   PREC   = normal    normal or accurate (medium, high low for compatibility)
   ISTART =      0    job   : 0-new  1-cont  2-samecut
   ICHARG =      2    charge: 1-file 2-atom 10-const
   ISPIN  =      1    spin polarized calculation?
   LNONCOLLINEAR =      F non collinear calculations
   LSORBIT =      F    spin-orbit coupling
   INIWAV =      1    electr: 0-lowe 1-rand  2-diag
   LASPH  =      T    aspherical Exc in radial PAW
 Electronic Relaxation 1
   ENCUT  =  600.0 eV  44.10 Ry    6.64 a.u.  16.86 16.86 42.60*2*pi/ulx,y,z
   ENINI  =  600.0     initial cutoff
   ENAUG  =  758.8 eV  augmentation charge cutoff
   NELM   =    200;   NELMIN=  8; NELMDL= -5     # of ELM steps 
   EDIFF  = 0.1E-05   stopping-criterion for ELM
   LREAL  =      F    real-space projection
   NLSPLINE    = F    spline interpolate recip. space projectors
   LCOMPAT=      F    compatible to vasp.4.4
   GGA_COMPAT  = T    GGA compatible to vasp.4.4-vasp.4.6
   LMAXPAW     = -100 max onsite density
   LMAXMIX     =    2 max onsite mixed and CHGCAR
   VOSKOWN=      0    Vosko Wilk Nusair interpolation
   ROPT   =    0.00000   0.00000   0.00000   0.00000
 Ionic relaxation
   EDIFFG = -.1E-01   stopping-criterion for IOM
   NSW    =      0    number of steps for IOM
   NBLOCK =      1;   KBLOCK =      1    inner block; outer block 
   IBRION =     -1    ionic relax: 0-MD 1-quasi-New 2-CG
   NFREE  =      0    steps in history (QN), initial steepest desc. (CG)
   ISIF   =      2    stress and relaxation
   IWAVPR =     10    prediction:  0-non 1-charg 2-wave 3-comb
   ISYM   =      2    0-nonsym 1-usesym 2-fastsym
   LCORR  =      T    Harris-Foulkes like correction to forces

   POTIM  = 0.5000    time-step for ionic-motion
   TEIN   =    0.0    initial temperature
   TEBEG  =    0.0;   TEEND  =   0.0 temperature during run
   SMASS  =  -3.00    Nose mass-parameter (am)
   estimated Nose-frequenzy (Omega)   =  0.10E-29 period in steps = 0.13E+47 mass=  -0.163E-26a.u.
   SCALEE = 1.0000    scale energy and forces
   NPACO  =    256;   APACO  = 10.0  distance and # of slots for P.C.
   PSTRESS=    0.0 pullay stress

  Mass of Ions in am
   POMASS =  12.01 16.00 24.30 16.00
  Ionic Valenz
   ZVAL   =   4.00  6.00  8.00  6.00
  Atomic Wigner-Seitz radii
   RWIGS  =  -1.00 -1.00 -1.00 -1.00
  virtual crystal weights 
   VCA    =   1.00  1.00  1.00  1.00
   NELECT =     458.0000    total number of electrons
   NUPDOWN=      -1.0000    fix difference up-down

 DOS related values:
   EMIN   =  10.00;   EMAX   =-10.00  energy-range for DOS
   EFERMI =   0.00
   ISMEAR =     0;   SIGMA  =   0.05  broadening in eV -4-tet -1-fermi 0-gaus

 Electronic relaxation 2 (details)
   IALGO  =     58    algorithm
   LDIAG  =      T    sub-space diagonalisation (order eigenvalues)
   LSUBROT=      F    optimize rotation matrix (better conditioning)
   TURBO    =      0    0=normal 1=particle mesh
   IRESTART =      0    0=no restart 2=restart with 2 vectors
   NREBOOT  =      0    no. of reboots
   NMIN     =      0    reboot dimension
   EREF     =   0.00    reference energy to select bands
   IMIX   =      4    mixing-type and parameters
     AMIX     =   0.40;   BMIX     =  1.00
     AMIX_MAG =   1.60;   BMIX_MAG =  1.00
     AMIN     =   0.10
     WC   =   100.;   INIMIX=   1;  MIXPRE=   1;  MAXMIX= -45

 Intra band minimization:
   WEIMIN = 0.0000     energy-eigenvalue tresh-hold
   EBREAK =  0.78E-09  absolut break condition
   DEPER  =   0.30     relativ break condition  

   TIME   =   0.40     timestep for ELM

  volume/ion in A,a.u.               =      23.03       155.40
  Fermi-wavevector in a.u.,A,eV,Ry     =   1.097571  2.074108 16.390423  1.204662
  Thomas-Fermi vector in A             =   2.233933

 Write flags
   LWAVE        =      F    write WAVECAR
   LDOWNSAMPLE  =      F    k-point downsampling of WAVECAR
   LCHARG       =      F    write CHGCAR
   LVTOT        =      F    write LOCPOT, total local potential
   LVHAR        =      F    write LOCPOT, Hartree potential only
   LELF         =      F    write electronic localiz. function (ELF)
   LORBIT       =      0    0 simple, 1 ext, 2 COOP (PROOUT), +10 PAW based schemes


 Dipole corrections
   LMONO  =      F    monopole corrections only (constant potential shift)
   LDIPOL =      T    correct potential (dipole corrections)
   IDIPOL =      3    1-x, 2-y, 3-z, 4-all directions 
   EPSILON=  1.0000000 bulk dielectric constant

 Exchange correlation treatment:
   GGA     =    MK    GGA type
   LEXCH   =    43    internal setting for exchange type
   LIBXC   =     F    Libxc                    
   VOSKOWN =     0    Vosko Wilk Nusair interpolation
   LHFCALC =     F    Hartree Fock is set to
   LHFONE  =     F    Hartree Fock one center treatment
   AEXX    =    0.0000 exact exchange contribution

 vdW DFT:
   LUSE_VDW   =     T    switch on vdW DFT
   Zab_VDW    =******    correlation parameter
   PARAM1     =0.1234
   PARAM2     =0.7114
   PARAM3     =0.0000
   -- rVV10 --
   BPARAM     = 6.3000
   CPARAM     = 0.0093

 Linear response parameters
   LEPSILON=     F    determine dielectric tensor
   LRPA    =     F    only Hartree local field effects (RPA)
   LNABLA  =     F    use nabla operator in PAW spheres
   LVEL    =     F    velocity operator in full k-point grid
   CSHIFT  =0.1000    complex shift for real part using Kramers Kronig
   OMEGAMAX=  -1.0    maximum frequency
   DEG_THRESHOLD= 0.2000000E-02 threshold for treating states as degnerate
   RTIME   =   -0.100 relaxation time in fs
  (WPLASMAI=    0.000 imaginary part of plasma frequency in eV, 0.658/RTIME)
   DFIELD  = 0.0000000 0.0000000 0.0000000 field for delta impulse in time

  Optional k-point grid parameters
   LKPOINTS_OPT  =     F    use optional k-point grid
   KPOINTS_OPT_MODE=     1    mode for optional k-point grid

 Orbital magnetization related:
   ORBITALMAG=     F  switch on orbital magnetization
   LCHIMAG   =     F  perturbation theory with respect to B field
   DQ        =  0.001000  dq finite difference perturbation B field
   LLRAUG    =     F  two centre corrections for induced B field



--------------------------------------------------------------------------------------------------------


 Static calculation
 charge density and potential will be updated during run
 non-spin polarized calculation
 Conjugate gradient for all bands (Freysoldt, et al. PRB 79, 241103 (2009))
 preconditioned conjugated gradient                                        
 perform sub-space diagonalisation
    before iterative eigenvector-optimisation
 modified Broyden-mixing scheme, WC =      100.0
 initial mixing is a Kerker type mixing with AMIX =  0.4000 and BMIX =      1.0000
 Hartree-type preconditioning will be used
 using additional bands           91
 reciprocal scheme for non local part
 use partial core corrections
 no Harris-corrections to forces 
 use gradient corrections 
 use of overlap-Matrix (Vanderbilt PP)
 Gauss-broadening in eV      SIGMA  =   0.05


--------------------------------------------------------------------------------------------------------


  energy-cutoff  :      600.00
  volume of cell :     1519.82
      direct lattice vectors                 reciprocal lattice vectors
     8.440984654  0.000000000  0.000000000     0.118469591  0.000000000  0.000000000
     0.000000000  8.440984654  0.000000000     0.000000000  0.118469591  0.000000000
     0.000000000  0.000000000 21.330738491     0.000000000  0.000000000  0.046880702

  length of vectors
     8.440984654  8.440984654 21.330738491     0.118469591  0.118469591  0.046880702



 k-points in units of 2pi/SCALE and weight: pymatgen v2020.8.13 with grid density = 
   0.00000000  0.00000000  0.00000000       0.250
   0.05923480  0.00000000  0.00000000       0.500
   0.05923480  0.05923480  0.00000000       0.250

 k-points in reciprocal lattice and weights: pymatgen v2020.8.13 with grid density = 
   0.00000000  0.00000000  0.00000000       0.250
   0.50000000  0.00000000  0.00000000       0.500
   0.50000000  0.50000000  0.00000000       0.250

 position of ions in fractional coordinates (direct lattice) 
   0.50000000  0.50000000  0.77156917
   0.50000000  0.50000000  0.82533289
   0.00000000  0.75000000  0.35160527
   0.25000000  0.00000000  0.35160527
   0.00000000  0.00000000  0.45053509
   0.25000000  0.75000000  0.45053509
   0.00000000  0.74993927  0.55008324
   0.25006073  0.00000000  0.55008324
   0.00000000  0.00000000  0.64874531
   0.24985833  0.75014167  0.64856955
   0.00000000  0.25000000  0.35160527
   0.25000000  0.50000000  0.35160527
   0.00000000  0.50000000  0.45053509
   0.25000000  0.25000000  0.45053509
   0.00000000  0.25006073  0.55008324
   0.25037838  0.50000000  0.55021952
   0.00000000  0.50000000  0.64861528
   0.24985833  0.24985833  0.64856955
   0.50000000  0.75000000  0.35160527
   0.75000000  0.00000000  0.35160527
   0.50000000  0.00000000  0.45053509
   0.75000000  0.75000000  0.45053509
   0.50000000  0.74962162  0.55021952
   0.74993927  0.00000000  0.55008324
   0.50000000  0.00000000  0.64861528
   0.75014167  0.75014167  0.64856955
   0.50000000  0.25000000  0.35160527
   0.75000000  0.50000000  0.35160527
   0.50000000  0.50000000  0.45053509
   0.75000000  0.25000000  0.45053509
   0.50000000  0.25037838  0.55021952
   0.74962162  0.50000000  0.55021952
   0.50000000  0.50000000  0.65061696
   0.75014167  0.24985833  0.64856955
   0.00000000  0.75000000  0.45053509
   0.25000000  0.00000000  0.45053509
   0.00000000  0.00000000  0.35160527
   0.25000000  0.75000000  0.35160527
   0.00000000  0.75021853  0.65097926
   0.24978147  0.00000000  0.65097926
   0.00000000  0.00000000  0.54980989
   0.24994577  0.75005423  0.54985911
   0.00000000  0.25000000  0.45053509
   0.25000000  0.50000000  0.45053509
   0.00000000  0.50000000  0.35160527
   0.25000000  0.25000000  0.35160527
   0.00000000  0.24978147  0.65097926
   0.24882271  0.50000000  0.65088287
   0.00000000  0.50000000  0.54976267
   0.24994577  0.24994577  0.54985911
   0.50000000  0.75000000  0.45053509
   0.75000000  0.00000000  0.45053509
   0.50000000  0.00000000  0.35160527
   0.75000000  0.75000000  0.35160527
   0.50000000  0.75117729  0.65088287
   0.75021853  0.00000000  0.65097926
   0.50000000  0.00000000  0.54976267
   0.75005423  0.75005423  0.54985911
   0.50000000  0.25000000  0.45053509
   0.75000000  0.50000000  0.45053509
   0.50000000  0.50000000  0.35160527
   0.75000000  0.25000000  0.35160527
   0.50000000  0.24882271  0.65088287
   0.75117729  0.50000000  0.65088287
   0.50000000  0.50000000  0.55023136
   0.75005423  0.24994577  0.54985911

 position of ions in cartesian coordinates  (Angst):
   4.22049233  4.22049233 16.45814023
   4.22049233  4.22049233 17.60496005
   0.00000000  6.33073849  7.50000000
   2.11024616  0.00000000  7.50000000
   0.00000000  0.00000000  9.61024616
   2.11024616  6.33073849  9.61024616
   0.00000000  6.33022585 11.73368172
   2.11075880  0.00000000 11.73368172
   0.00000000  0.00000000 13.83821654
   2.10905031  6.33193435 13.83446740
   0.00000000  2.11024616  7.50000000
   2.11024616  4.22049233  7.50000000
   0.00000000  4.22049233  9.61024616
   2.11024616  2.11024616  9.61024616
   0.00000000  2.11075880 11.73368172
   2.11344006  4.22049233 11.73658877
   0.00000000  4.22049233 13.83544293
   2.10905031  2.10905031 13.83446740
   4.22049233  6.33073849  7.50000000
   6.33073849  0.00000000  7.50000000
   4.22049233  0.00000000  9.61024616
   6.33073849  6.33073849  9.61024616
   4.22049233  6.32754460 11.73658877
   6.33022585  0.00000000 11.73368172
   4.22049233  0.00000000 13.83544293
   6.33193435  6.33193435 13.83446740
   4.22049233  2.11024616  7.50000000
   6.33073849  4.22049233  7.50000000
   4.22049233  4.22049233  9.61024616
   6.33073849  2.11024616  9.61024616
   4.22049233  2.11344006 11.73658877
   6.32754460  4.22049233 11.73658877
   4.22049233  4.22049233 13.87814023
   6.33193435  2.10905031 13.83446740
   0.00000000  6.33073849  9.61024616
   2.11024616  0.00000000  9.61024616
   0.00000000  0.00000000  7.50000000
   2.11024616  6.33073849  7.50000000
   0.00000000  6.33258312 13.88586825
   2.10840153  0.00000000 13.88586825
   0.00000000  0.00000000 11.72785099
   2.10978841  6.33119624 11.72890095
   0.00000000  2.11024616  9.61024616
   2.11024616  4.22049233  9.61024616
   0.00000000  4.22049233  7.50000000
   2.11024616  2.11024616  7.50000000
   0.00000000  2.10840153 13.88586825
   2.10030867  4.22049233 13.88381232
   0.00000000  4.22049233 11.72684365
   2.10978841  2.10978841 11.72890095
   4.22049233  6.33073849  9.61024616
   6.33073849  0.00000000  9.61024616
   4.22049233  0.00000000  7.50000000
   6.33073849  6.33073849  7.50000000
   4.22049233  6.34067598 13.88381232
   6.33258312  0.00000000 13.88586825
   4.22049233  0.00000000 11.72684365
   6.33119624  6.33119624 11.72890095
   4.22049233  2.11024616  9.61024616
   6.33073849  4.22049233  9.61024616
   4.22049233  4.22049233  7.50000000
   6.33073849  2.11024616  7.50000000
   4.22049233  2.10030867 13.88381232
   6.34067598  4.22049233 13.88381232
   4.22049233  4.22049233 11.73684118
   6.33119624  2.10978841 11.72890095



--------------------------------------------------------------------------------------------------------


 k-point   1 :   0.0000 0.0000 0.0000  plane waves:   50745
 k-point   2 :   0.5000 0.0000 0.0000  plane waves:   50798
 k-point   3 :   0.5000 0.5000 0.0000  plane waves:   50752

 maximum and minimum number of plane-waves per node :     12720    12632

 maximum number of plane-waves:     50798
 maximum index in each direction: 
   IXMAX=   16   IYMAX=   16   IZMAX=   42
   IXMIN=  -17   IYMIN=  -17   IZMIN=  -42


 parallel 3D FFT for wavefunctions:
    minimum data exchange during FFTs selected (reduces bandwidth)
 parallel 3D FFT for charge:
    minimum data exchange during FFTs selected (reduces bandwidth)


 total amount of memory used by VASP MPI-rank0    78528. kBytes
=======================================================================

   base      :      30000. kBytes
   nonl-proj :      29343. kBytes
   fftplans  :       3857. kBytes
   grid      :       5885. kBytes
   one-center:        137. kBytes
   wavefun   :       9306. kBytes

     INWAV:  cpu time      0.0002: real time      0.0004
 Broyden mixing: mesh for mixing (old mesh)
   NGX = 33   NGY = 33   NGZ = 85
  (NGX  =108   NGY  =108   NGZ  =256)
  gives a total of  92565 points

 initial charge density was supplied:
 charge density of overlapping atoms calculated
 number of electron     458.0000000 magnetization 
 keeping initial charge density in first step


--------------------------------------------------------------------------------------------------------


 Maximum index for augmentation-charges          334 (set IRDMAX)


--------------------------------------------------------------------------------------------------------


 First call to EWALD:  gamma=   0.154
 Maximum number of real-space cells 4x 4x 2
 Maximum number of reciprocal cells 2x 2x 5

    FEWALD:  cpu time      0.0032: real time      0.0032


--------------------------------------- Iteration      1(   1)  ---------------------------------------


vdW kernel read from vdw_kernel.bindat
  0.0000  0.2424  0.5071  0.7962  1.1119  1.4567  1.8333  2.2446  2.6937  3.1842
  3.7199  4.3049  4.9438  5.6415  6.4036  7.2358  8.1446  9.1372 10.2212 11.4050
 12.6979 14.1099 15.6519 17.3360 19.1751 21.1837 23.3773 25.7729 28.3892 31.2465
 34.3669 37.7748 41.4965 45.5611 50.0000

    POTLOK:  cpu time      0.9679: real time      0.9706
    SETDIJ:  cpu time      0.1598: real time      0.1599
    TRIAL :  cpu time      5.3967: real time      5.4905
    CORREC:  cpu time      0.0011: real time      0.0012
    --------------------------------------------
      LOOP:  cpu time      6.5275: real time      6.6729

 eigenvalue-minimisations  :  2304
 total energy-change (2. order) : 0.4257174E+04  (-0.3061179E+05)
 number of electron     458.0000000 magnetization 
 augmentation part      458.0000000 magnetization 

 DIPCOR: dipole corrections for dipol
 direction  3 min pos     1,
 dipolmoment           0.000000      0.000000     -0.000352 electrons x Angstroem
 Tr[quadrupol]     -6318.707966

 energy correction for charged system         0.000000 eV
 dipol+quadrupol energy correction           -0.000000 eV
 added-field ion interaction          0.002911 eV  (added to PSCEN)


 Free energy of the ion-electron system (eV)
  ---------------------------------------------------
  alpha Z        PSCENC =       907.96701471
  Ewald energy   TEWEN  =    136826.47027779
  -Hartree energ DENC   =   -172926.08885425
  -exchange      EXHF   =         0.00000000
  -V(xc)+E(xc)   XCENC  =      1783.94680352
  PAW double counting   =     32339.39176546   -36140.44900584
  entropy T*S    EENTRO =        -0.02296916
  eigenvalues    EBANDS =     -6899.97328027
  atomic energy  EATOM  =     48365.93245855
  ---------------------------------------------------
  free energy    TOTEN  =      4257.17421051 eV

  energy without entropy =     4257.19717966  energy(sigma->0) =     4257.18569508


--------------------------------------------------------------------------------------------------------




--------------------------------------- Iteration      1(   2)  ---------------------------------------


    TRIAL :  cpu time      2.2430: real time      2.2433
    CORREC:  cpu time      0.0003: real time      0.0003
    --------------------------------------------
      LOOP:  cpu time      2.2498: real time      2.2578

 eigenvalue-minimisations  :  2304
 total energy-change (2. order) :-0.4281526E+04  (-0.4206640E+04)
 number of electron     458.0000000 magnetization 
 augmentation part      458.0000000 magnetization 

 DIPCOR: dipole corrections for dipol
 direction  3 min pos     1,
 dipolmoment           0.000000      0.000000     -0.000352 electrons x Angstroem
 Tr[quadrupol]     -6318.707966

 energy correction for charged system         0.000000 eV
 dipol+quadrupol energy correction           -0.000000 eV
 added-field ion interaction          0.002911 eV  (added to PSCEN)


 Free energy of the ion-electron system (eV)
  ---------------------------------------------------
  alpha Z        PSCENC =       907.96701471
  Ewald energy   TEWEN  =    136826.47027779
  -Hartree energ DENC   =   -172926.08885425
  -exchange      EXHF   =         0.00000000
  -V(xc)+E(xc)   XCENC  =      1783.94680352
  PAW double counting   =     32339.39176546   -36140.44900584
  entropy T*S    EENTRO =        -0.00000000
  eigenvalues    EBANDS =    -11181.52230421
  atomic energy  EATOM  =     48365.93245855
  ---------------------------------------------------
  free energy    TOTEN  =       -24.35184428 eV

  energy without entropy =      -24.35184428  energy(sigma->0) =      -24.35184428


--------------------------------------------------------------------------------------------------------




--------------------------------------- Iteration      1(   3)  ---------------------------------------


    TRIAL :  cpu time      2.3525: real time      2.3530
    CORREC:  cpu time      0.0003: real time      0.0003
    --------------------------------------------
      LOOP:  cpu time      2.3576: real time      2.3674

 eigenvalue-minimisations  :  2304
 total energy-change (2. order) :-0.3114353E+03  (-0.3094180E+03)
 number of electron     458.0000000 magnetization 
 augmentation part      458.0000000 magnetization 

 DIPCOR: dipole corrections for dipol
 direction  3 min pos     1,
 dipolmoment           0.000000      0.000000     -0.000352 electrons x Angstroem
 Tr[quadrupol]     -6318.707966

 energy correction for charged system         0.000000 eV
 dipol+quadrupol energy correction           -0.000000 eV
 added-field ion interaction          0.002911 eV  (added to PSCEN)


 Free energy of the ion-electron system (eV)
  ---------------------------------------------------
  alpha Z        PSCENC =       907.96701471
  Ewald energy   TEWEN  =    136826.47027779
  -Hartree energ DENC   =   -172926.08885425
  -exchange      EXHF   =         0.00000000
  -V(xc)+E(xc)   XCENC  =      1783.94680352
  PAW double counting   =     32339.39176546   -36140.44900584
  entropy T*S    EENTRO =        -0.00000000
  eigenvalues    EBANDS =    -11492.95760218
  atomic energy  EATOM  =     48365.93245855
  ---------------------------------------------------
  free energy    TOTEN  =      -335.78714225 eV

  energy without entropy =     -335.78714225  energy(sigma->0) =     -335.78714225


--------------------------------------------------------------------------------------------------------




--------------------------------------- Iteration      1(   4)  ---------------------------------------


    TRIAL :  cpu time      2.3594: real time      2.3596
    CORREC:  cpu time      0.0003: real time      0.0003
    --------------------------------------------
      LOOP:  cpu time      2.3641: real time      2.3736

 eigenvalue-minimisations  :  2368
 total energy-change (2. order) :-0.6032758E+01  (-0.6025218E+01)
 number of electron     458.0000000 magnetization 
 augmentation part      458.0000000 magnetization 

 DIPCOR: dipole corrections for dipol
 direction  3 min pos     1,
 dipolmoment           0.000000      0.000000     -0.000352 electrons x Angstroem
 Tr[quadrupol]     -6318.707966

 energy correction for charged system         0.000000 eV
 dipol+quadrupol energy correction           -0.000000 eV
 added-field ion interaction          0.002911 eV  (added to PSCEN)


 Free energy of the ion-electron system (eV)
  ---------------------------------------------------
  alpha Z        PSCENC =       907.96701471
  Ewald energy   TEWEN  =    136826.47027779
  -Hartree energ DENC   =   -172926.08885425
  -exchange      EXHF   =         0.00000000
  -V(xc)+E(xc)   XCENC  =      1783.94680352
  PAW double counting   =     32339.39176546   -36140.44900584
  entropy T*S    EENTRO =        -0.00000000
  eigenvalues    EBANDS =    -11498.99036064
  atomic energy  EATOM  =     48365.93245855
  ---------------------------------------------------
  free energy    TOTEN  =      -341.81990071 eV

  energy without entropy =     -341.81990071  energy(sigma->0) =     -341.81990071


--------------------------------------------------------------------------------------------------------




--------------------------------------- Iteration      1(   5)  ---------------------------------------


    TRIAL :  cpu time      2.3787: real time      2.3788
    CORREC:  cpu time      0.0003: real time      0.0003
    CHARGE:  cpu time      0.0743: real time      0.0746
    --------------------------------------------
      LOOP:  cpu time      2.4577: real time      2.4676

 eigenvalue-minimisations  :  2304
 total energy-change (2. order) :-0.7777582E-01  (-0.7777282E-01)
 number of electron     457.9999384 magnetization 
 augmentation part      159.5846105 magnetization 

 DIPCOR: dipole corrections for dipol
 direction  3 min pos     1,
 dipolmoment           0.000000      0.000000     -0.000352 electrons x Angstroem
 Tr[quadrupol]     -6318.707966

 energy correction for charged system         0.000000 eV
 dipol+quadrupol energy correction           -0.000000 eV
 added-field ion interaction          0.002911 eV  (added to PSCEN)


 Free energy of the ion-electron system (eV)
  ---------------------------------------------------
  alpha Z        PSCENC =       907.96701471
  Ewald energy   TEWEN  =    136826.47027779
  -Hartree energ DENC   =   -172926.08885425
  -exchange      EXHF   =         0.00000000
  -V(xc)+E(xc)   XCENC  =      1783.94680352
  PAW double counting   =     32339.39176546   -36140.44900584
  entropy T*S    EENTRO =        -0.00000000
  eigenvalues    EBANDS =    -11499.06813647
  atomic energy  EATOM  =     48365.93245855
  ---------------------------------------------------
  free energy    TOTEN  =      -341.89767654 eV

  energy without entropy =     -341.89767654  energy(sigma->0) =     -341.89767654


--------------------------------------------------------------------------------------------------------




--------------------------------------- Iteration      1(   6)  ---------------------------------------


    POTLOK:  cpu time      0.3299: real time      0.3299
    SETDIJ:  cpu time      0.2078: real time      0.2078
    TRIAL :  cpu time      0.6710: real time      0.6719
    CORREC:  cpu time      0.8390: real time      0.8393
    CHARGE:  cpu time      0.0555: real time      0.0555
    --------------------------------------------
      LOOP:  cpu time      2.1077: real time      2.1182

 eigenvalue-minimisations  :     0
 total energy-change (2. order) : 0.1773293E+03  (-0.9803037E+02)
 number of electron     457.9999273 magnetization 
 augmentation part      156.7538679 magnetization 

 DIPCOR: dipole corrections for dipol
 direction  3 min pos     1,
 dipolmoment           0.000000      0.000000      0.183765 electrons x Angstroem
 Tr[quadrupol]     -6354.181305

 energy correction for charged system         0.000000 eV
 dipol+quadrupol energy correction           -0.002010 eV
 added-field ion interaction         -1.518380 eV  (added to PSCEN)


 Free energy of the ion-electron system (eV)
  ---------------------------------------------------
  alpha Z        PSCENC =       904.04358864
  Ewald energy   TEWEN  =    136826.47027779
  -Hartree energ DENC   =   -176781.51596961
  -exchange      EXHF   =         0.00000000
  -V(xc)+E(xc)   XCENC  =      1908.21121508
  PAW double counting   =     36941.30514251   -40689.08014947
  entropy T*S    EENTRO =        -0.00000000
  eigenvalues    EBANDS =     -7639.93494759
  atomic energy  EATOM  =     48365.93245855
  ---------------------------------------------------
  free energy    TOTEN  =      -164.56838410 eV

  energy without entropy =     -164.56838410  energy(sigma->0) =     -164.56838410


--------------------------------------------------------------------------------------------------------




--------------------------------------- Iteration      1(   7)  ---------------------------------------


    POTLOK:  cpu time      0.3200: real time      0.3201
    SETDIJ:  cpu time      0.2134: real time      0.2134
    TRIAL :  cpu time      0.5992: real time      0.5993
    CORREC:  cpu time      0.8233: real time      0.8238
    CHARGE:  cpu time      0.0548: real time      0.0548
    --------------------------------------------
      LOOP:  cpu time      2.0156: real time      2.0257

 eigenvalue-minimisations  :     0
 total energy-change (2. order) :-0.9850764E+02  (-0.7056922E+01)
 number of electron     457.9999264 magnetization 
 augmentation part      154.8241562 magnetization 

 DIPCOR: dipole corrections for dipol
 direction  3 min pos     1,
 dipolmoment           0.000000      0.000000      0.167643 electrons x Angstroem
 Tr[quadrupol]     -6360.195979

 energy correction for charged system         0.000000 eV
 dipol+quadrupol energy correction           -0.001673 eV
 added-field ion interaction         -1.385175 eV  (added to PSCEN)


 Free energy of the ion-electron system (eV)
  ---------------------------------------------------
  alpha Z        PSCENC =       906.12160771
  Ewald energy   TEWEN  =    136826.47027779
  -Hartree energ DENC   =   -174922.29603487
  -exchange      EXHF   =         0.00000000
  -V(xc)+E(xc)   XCENC  =      1838.97092755
  PAW double counting   =     35815.88369578   -39638.06187506
  entropy T*S    EENTRO =        -0.00000000
  eigenvalues    EBANDS =     -9456.09708476
  atomic energy  EATOM  =     48365.93245855
  ---------------------------------------------------
  free energy    TOTEN  =      -263.07602731 eV

  energy without entropy =     -263.07602731  energy(sigma->0) =     -263.07602731


--------------------------------------------------------------------------------------------------------




--------------------------------------- Iteration      1(   8)  ---------------------------------------


    POTLOK:  cpu time      0.3263: real time      0.3263
    SETDIJ:  cpu time      0.2032: real time      0.2032
    TRIAL :  cpu time      0.6004: real time      0.6005
    CORREC:  cpu time      0.8248: real time      0.8249
    CHARGE:  cpu time      0.0546: real time      0.0546
    --------------------------------------------
      LOOP:  cpu time      2.0235: real time      2.0239

 eigenvalue-minimisations  :     0
 total energy-change (2. order) :-0.7072709E+01  (-0.4579275E+01)
 number of electron     457.9999246 magnetization 
 augmentation part      154.9463391 magnetization 

 DIPCOR: dipole corrections for dipol
 direction  3 min pos     1,
 dipolmoment           0.000000      0.000000      0.101435 electrons x Angstroem
 Tr[quadrupol]     -6358.519337

 energy correction for charged system         0.000000 eV
 dipol+quadrupol energy correction           -0.000613 eV
 added-field ion interaction         -0.838121 eV  (added to PSCEN)


 Free energy of the ion-electron system (eV)
  ---------------------------------------------------
  alpha Z        PSCENC =       906.73698400
  Ewald energy   TEWEN  =    136826.47027779
  -Hartree energ DENC   =   -174812.85504031
  -exchange      EXHF   =         0.00000000
  -V(xc)+E(xc)   XCENC  =      1828.95425651
  PAW double counting   =     35691.62572583   -39442.03598182
  entropy T*S    EENTRO =        -0.00000000
  eigenvalues    EBANDS =     -9634.97741718
  atomic energy  EATOM  =     48365.93245855
  ---------------------------------------------------
  free energy    TOTEN  =      -270.14873664 eV

  energy without entropy =     -270.14873664  energy(sigma->0) =     -270.14873664


--------------------------------------------------------------------------------------------------------




--------------------------------------- Iteration      1(   9)  ---------------------------------------


    POTLOK:  cpu time      0.3183: real time      0.3183
    SETDIJ:  cpu time      0.2098: real time      0.2098
    TRIAL :  cpu time      0.5992: real time      0.5993
    CORREC:  cpu time      0.8252: real time      0.8253
    CHARGE:  cpu time      0.0548: real time      0.0548
    --------------------------------------------
      LOOP:  cpu time      2.0127: real time      2.0217

 eigenvalue-minimisations  :     0
 total energy-change (2. order) :-0.4476886E+01  (-0.1763501E+01)
 number of electron     457.9999246 magnetization 
 augmentation part      154.9576089 magnetization 

 DIPCOR: dipole corrections for dipol
 direction  3 min pos     1,
 dipolmoment           0.000000      0.000000      0.109306 electrons x Angstroem
 Tr[quadrupol]     -6350.236745

 energy correction for charged system         0.000000 eV
 dipol+quadrupol energy correction           -0.000711 eV
 added-field ion interaction         -0.903155 eV  (added to PSCEN)


 Free energy of the ion-electron system (eV)
  ---------------------------------------------------
  alpha Z        PSCENC =       907.32548273
  Ewald energy   TEWEN  =    136826.47027779
  -Hartree energ DENC   =   -174670.90052752
  -exchange      EXHF   =         0.00000000
  -V(xc)+E(xc)   XCENC  =      1828.30186002
  PAW double counting   =     35603.19128857   -39391.53171394
  entropy T*S    EENTRO =        -0.00000000
  eigenvalues    EBANDS =     -9743.41474910
  atomic energy  EATOM  =     48365.93245855
  ---------------------------------------------------
  free energy    TOTEN  =      -274.62562290 eV

  energy without entropy =     -274.62562290  energy(sigma->0) =     -274.62562290


--------------------------------------------------------------------------------------------------------




--------------------------------------- Iteration      1(  10)  ---------------------------------------


    POTLOK:  cpu time      0.3206: real time      0.3206
    SETDIJ:  cpu time      0.2027: real time      0.2028
    TRIAL :  cpu time      0.6011: real time      0.6011
    CORREC:  cpu time      0.8343: real time      0.8344
    CHARGE:  cpu time      0.0549: real time      0.0549
    --------------------------------------------
      LOOP:  cpu time      2.0276: real time      2.0280

 eigenvalue-minimisations  :     0
 total energy-change (2. order) :-0.1787459E+01  (-0.5987530E+00)
 number of electron     457.9999252 magnetization 
 augmentation part      154.9235629 magnetization 

 DIPCOR: dipole corrections for dipol
 direction  3 min pos     1,
 dipolmoment           0.000000      0.000000      0.137920 electrons x Angstroem
 Tr[quadrupol]     -6349.579895

 energy correction for charged system         0.000000 eV
 dipol+quadrupol energy correction           -0.001132 eV
 added-field ion interaction         -1.139580 eV  (added to PSCEN)


 Free energy of the ion-electron system (eV)
  ---------------------------------------------------
  alpha Z        PSCENC =       907.12401444
  Ewald energy   TEWEN  =    136826.47027779
  -Hartree energ DENC   =   -174481.92562216
  -exchange      EXHF   =         0.00000000
  -V(xc)+E(xc)   XCENC  =      1826.56577380
  PAW double counting   =     35497.72876590   -39293.62424854
  entropy T*S    EENTRO =        -0.00000000
  eigenvalues    EBANDS =     -9924.68450207
  atomic energy  EATOM  =     48365.93245855
  ---------------------------------------------------
  free energy    TOTEN  =      -276.41308230 eV

  energy without entropy =     -276.41308230  energy(sigma->0) =     -276.41308230


--------------------------------------------------------------------------------------------------------




--------------------------------------- Iteration      1(  11)  ---------------------------------------


    POTLOK:  cpu time      0.3202: real time      0.3202
    SETDIJ:  cpu time      0.2110: real time      0.2111
    TRIAL :  cpu time      0.6003: real time      0.6004
    CORREC:  cpu time      0.8232: real time      0.8233
    CHARGE:  cpu time      0.0548: real time      0.0548
    --------------------------------------------
      LOOP:  cpu time      2.0156: real time      2.0239

 eigenvalue-minimisations  :     0
 total energy-change (2. order) :-0.6000093E+00  (-0.2160951E+00)
 number of electron     457.9999257 magnetization 
 augmentation part      155.0290388 magnetization 

 DIPCOR: dipole corrections for dipol
 direction  3 min pos     1,
 dipolmoment           0.000000      0.000000      0.133420 electrons x Angstroem
 Tr[quadrupol]     -6350.528483

 energy correction for charged system         0.000000 eV
 dipol+quadrupol energy correction           -0.001060 eV
 added-field ion interaction         -1.102398 eV  (added to PSCEN)


 Free energy of the ion-electron system (eV)
  ---------------------------------------------------
  alpha Z        PSCENC =       906.86676893
  Ewald energy   TEWEN  =    136826.47027779
  -Hartree energ DENC   =   -174419.99102068
  -exchange      EXHF   =         0.00000000
  -V(xc)+E(xc)   XCENC  =      1825.67336107
  PAW double counting   =     35445.89229374   -39233.53005318
  entropy T*S    EENTRO =        -0.00000000
  eigenvalues    EBANDS =     -9994.32717784
  atomic energy  EATOM  =     48365.93245855
  ---------------------------------------------------
  free energy    TOTEN  =      -277.01309162 eV

  energy without entropy =     -277.01309162  energy(sigma->0) =     -277.01309162


--------------------------------------------------------------------------------------------------------




--------------------------------------- Iteration      1(  12)  ---------------------------------------


    POTLOK:  cpu time      0.3175: real time      0.3175
    SETDIJ:  cpu time      0.2096: real time      0.2097
    TRIAL :  cpu time      0.5994: real time      0.5995
    CORREC:  cpu time      0.8251: real time      0.8255
    CHARGE:  cpu time      0.0548: real time      0.0548
    --------------------------------------------
      LOOP:  cpu time      2.0121: real time      2.0211

 eigenvalue-minimisations  :     0
 total energy-change (2. order) :-0.2160778E+00  (-0.7806615E-01)
 number of electron     457.9999258 magnetization 
 augmentation part      155.1369979 magnetization 

 DIPCOR: dipole corrections for dipol
 direction  3 min pos     1,
 dipolmoment           0.000000      0.000000      0.126183 electrons x Angstroem
 Tr[quadrupol]     -6351.290194

 energy correction for charged system         0.000000 eV
 dipol+quadrupol energy correction           -0.000948 eV
 added-field ion interaction         -1.042607 eV  (added to PSCEN)


 Free energy of the ion-electron system (eV)
  ---------------------------------------------------
  alpha Z        PSCENC =       906.86080108
  Ewald energy   TEWEN  =    136826.47027779
  -Hartree energ DENC   =   -174449.98744656
  -exchange      EXHF   =         0.00000000
  -V(xc)+E(xc)   XCENC  =      1826.04445953
  PAW double counting   =     35438.51498543   -39224.62629341
  entropy T*S    EENTRO =        -0.00000000
  eigenvalues    EBANDS =     -9966.43841186
  atomic energy  EATOM  =     48365.93245855
  ---------------------------------------------------
  free energy    TOTEN  =      -277.22916945 eV

  energy without entropy =     -277.22916945  energy(sigma->0) =     -277.22916945


--------------------------------------------------------------------------------------------------------




--------------------------------------- Iteration      1(  13)  ---------------------------------------


    POTLOK:  cpu time      0.3223: real time      0.3223
    SETDIJ:  cpu time      0.2056: real time      0.2056
    TRIAL :  cpu time      0.5982: real time      0.5983
    CORREC:  cpu time      0.8253: real time      0.8253
    CHARGE:  cpu time      0.0553: real time      0.0553
    --------------------------------------------
      LOOP:  cpu time      2.0121: real time      2.0210

 eigenvalue-minimisations  :     0
 total energy-change (2. order) :-0.7808170E-01  (-0.3690031E-01)
 number of electron     457.9999258 magnetization 
 augmentation part      155.1747866 magnetization 

 DIPCOR: dipole corrections for dipol
 direction  3 min pos     1,
 dipolmoment           0.000000      0.000000      0.122926 electrons x Angstroem
 Tr[quadrupol]     -6351.733317

 energy correction for charged system         0.000000 eV
 dipol+quadrupol energy correction           -0.000900 eV
 added-field ion interaction         -1.015695 eV  (added to PSCEN)


 Free energy of the ion-electron system (eV)
  ---------------------------------------------------
  alpha Z        PSCENC =       906.92249784
  Ewald energy   TEWEN  =    136826.47027779
  -Hartree energ DENC   =   -174482.28075408
  -exchange      EXHF   =         0.00000000
  -V(xc)+E(xc)   XCENC  =      1826.38077147
  PAW double counting   =     35440.16195439   -39229.23969556
  entropy T*S    EENTRO =        -0.00000000
  eigenvalues    EBANDS =     -9931.65476153
  atomic energy  EATOM  =     48365.93245855
  ---------------------------------------------------
  free energy    TOTEN  =      -277.30725115 eV

  energy without entropy =     -277.30725115  energy(sigma->0) =     -277.30725115


--------------------------------------------------------------------------------------------------------




--------------------------------------- Iteration      1(  14)  ---------------------------------------


    POTLOK:  cpu time      0.3182: real time      0.3183
    SETDIJ:  cpu time      0.2105: real time      0.2105
    TRIAL :  cpu time      0.5993: real time      0.5994
    CORREC:  cpu time      0.8179: real time      0.8180
    CHARGE:  cpu time      0.0546: real time      0.0546
    --------------------------------------------
      LOOP:  cpu time      2.0054: real time      2.0148

 eigenvalue-minimisations  :     0
 total energy-change (2. order) :-0.3692834E-01  (-0.1761796E-01)
 number of electron     457.9999258 magnetization 
 augmentation part      155.1584336 magnetization 

 DIPCOR: dipole corrections for dipol
 direction  3 min pos     1,
 dipolmoment           0.000000      0.000000      0.122449 electrons x Angstroem
 Tr[quadrupol]     -6352.076370

 energy correction for charged system         0.000000 eV
 dipol+quadrupol energy correction           -0.000893 eV
 added-field ion interaction         -1.011751 eV  (added to PSCEN)


 Free energy of the ion-electron system (eV)
  ---------------------------------------------------
  alpha Z        PSCENC =       906.95124275
  Ewald energy   TEWEN  =    136826.47027779
  -Hartree energ DENC   =   -174497.08433104
  -exchange      EXHF   =         0.00000000
  -V(xc)+E(xc)   XCENC  =      1826.39663091
  PAW double counting   =     35440.79596503   -39231.52830733
  entropy T*S    EENTRO =        -0.00000000
  eigenvalues    EBANDS =     -9915.27811614
  atomic energy  EATOM  =     48365.93245855
  ---------------------------------------------------
  free energy    TOTEN  =      -277.34417949 eV

  energy without entropy =     -277.34417949  energy(sigma->0) =     -277.34417949


--------------------------------------------------------------------------------------------------------




[...]
    269       6.6097      0.00000
    270       6.6097      0.00000
    271       6.6098      0.00000
    272       6.9035      0.00000
    273       7.1454      0.00000
    274       7.1454      0.00000
    275       7.2729      0.00000
    276       7.3589      0.00000
    277       7.5460      0.00000
    278       7.5460      0.00000
    279       7.5486      0.00000
    280       7.7967      0.00000
    281       7.7978      0.00000
    282       7.7980      0.00000
    283       7.8071      0.00000
    284       7.8141      0.00000
    285       7.8159      0.00000
    286       7.8228      0.00000
    287       7.8228      0.00000
    288       8.0564      0.00000
    289       8.0584      0.00000
    290       8.0652      0.00000
    291       8.2139      0.00000
    292       8.2168      0.00000
    293       8.2634      0.00000
    294       8.3059      0.00000
    295       8.3209      0.00000
    296       8.3405      0.00000
    297       8.3524      0.00000
    298       8.3586      0.00000
    299       8.3845      0.00000
    300       8.5958      0.00000
    301       8.6423      0.00000
    302       8.6646      0.00000
    303       8.7410      0.00000
    304       8.7420      0.00000
    305       9.0357      0.00000
    306       9.0974      0.00000
    307       9.1511      0.00000
    308       9.2383      0.00000
    309       9.2909      0.00000
    310       9.3682      0.00000
    311       9.3879      0.00000
    312       9.4702      0.00000
    313       9.5575      0.00000
    314       9.6158      0.00000
    315       9.6634      0.00000
    316       9.6683      0.00000
    317      10.0497      0.00000
    318      10.0848      0.00000
    319      10.1732      0.00000
    320      10.1804      0.00000


--------------------------------------------------------------------------------------------------------


 soft charge-density along one line, spin component           1
         0         1         2         3         4         5         6         7         8         9
 total charge-density along one line

 pseudopotential strength for first ion, spin component:           1
 10.245  13.623   0.000   0.025   0.000  -0.000  -0.075  -0.000
 13.623  18.115   0.000   0.033   0.000  -0.000  -0.099  -0.000
  0.000   0.000  -4.420  -0.000   0.000   8.677   0.000  -0.000
  0.025   0.033  -0.000  -4.425   0.000   0.000   8.661  -0.000
  0.000   0.000   0.000   0.000  -4.420  -0.000  -0.000   8.677
 -0.000  -0.000   8.677   0.000  -0.000 -19.174  -0.000   0.000
 -0.075  -0.099   0.000   8.661  -0.000  -0.000 -19.092   0.000
 -0.000  -0.000  -0.000  -0.000   8.677   0.000   0.000 -19.174
 total augmentation occupancy for first ion, spin component:           1
  7.036  -3.185   0.000   2.069  -0.000   0.000   0.370   0.000
 -3.185   1.850   0.000  -1.578   0.000  -0.000  -0.222   0.000
  0.000   0.000   0.824   0.000   0.000   0.057  -0.000   0.000
  2.069  -1.578   0.000   2.208   0.000  -0.000   0.202  -0.000
 -0.000   0.000   0.000   0.000   0.824   0.000   0.000   0.057
  0.000  -0.000   0.057  -0.000   0.000   0.004  -0.000   0.000
  0.370  -0.222  -0.000   0.202   0.000  -0.000   0.028   0.000
  0.000   0.000   0.000  -0.000   0.057   0.000   0.000   0.004


------------------------ aborting loop because EDIFF is reached ----------------------------------------


    FORLOC:  cpu time      0.0039: real time      0.0039
    FORNL :  cpu time      0.4192: real time      0.4196
    STRESS:  cpu time      1.3343: real time      1.3351
    FORCOR:  cpu time      0.3211: real time      0.3212
    OFIELD:  cpu time      0.0001: real time      0.0001

  FORCE on cell =-STRESS in cart. coord.  units (eV):
  Direction    XX          YY          ZZ          XY          YZ          ZX
  --------------------------------------------------------------------------------------
  Alpha Z   907.96410   907.96410   907.96410
  Ewald  157329.00052157329.00052************     0.00000     0.00000    -0.00000
  Hartree167704.74792167704.74792************    -0.00000    -0.00000    -0.00000
  E(xc)   -2499.86773 -2499.86773 -2498.90104    -0.00000     0.00000     0.00000
  Local  ************************334629.39400    -0.00000    -0.00000    -0.00000
  n-local -2850.55090 -2851.37815 -2881.15613     0.00000     0.00000     0.00000
  augment  1058.09361  1058.09361  1048.03334     0.00000     0.00000    -0.00000
  Kinetic  7494.16662  7496.77122  7515.65482     0.00001     0.00000    -0.00000
  Fock        0.00000     0.00000     0.00000     0.00000     0.00000     0.00000
  -------------------------------------------------------------------------------------
  Total     -30.15605   -30.15605    -5.27408     0.00000     0.00000    -0.00000
  in kB     -31.79017   -31.79017    -5.55987     0.00000     0.00000    -0.00000
  external pressure =      -23.05 kB  Pullay stress =        0.00 kB


 VOLUME and BASIS-vectors are now :
 -----------------------------------------------------------------------------
  energy-cutoff  :      600.00
  volume of cell :     1519.82
      direct lattice vectors                 reciprocal lattice vectors
     8.440984654  0.000000000  0.000000000     0.118469591  0.000000000  0.000000000
     0.000000000  8.440984654  0.000000000     0.000000000  0.118469591  0.000000000
     0.000000000  0.000000000 21.330738491     0.000000000  0.000000000  0.046880702

  length of vectors
     8.440984654  8.440984654 21.330738491     0.118469591  0.118469591  0.046880702


 FORCES acting on ions:
    Electron-Ion                     Ewald-Force                    Non-Local-Force
 -----------------------------------------------------------------------------------------------
   0.884E-13 -.148E-12 -.807E+03   0.888E-14 -.266E-14 0.780E+03   0.000E+00 -.124E-22 0.272E+02
   0.359E-12 0.242E-12 -.140E+04   0.133E-14 -.311E-14 0.146E+04   -.265E-22 0.000E+00 -.602E+02
   -.557E-13 -.116E+00 0.208E+04   0.560E-13 0.116E+00 -.207E+04   0.000E+00 -.172E-03 -.679E+01
   0.116E+00 -.138E-12 0.208E+04   -.116E+00 0.671E-13 -.207E+04   0.172E-03 -.529E-22 -.679E+01
   -.436E-13 0.673E-14 0.712E+03   -.150E-10 0.150E-10 -.712E+03   0.000E+00 0.000E+00 0.474E+00
   0.384E+00 -.384E+00 0.713E+03   -.380E+00 0.380E+00 -.713E+03   -.247E-02 0.247E-02 0.497E+00
   -.299E-13 -.259E+01 -.643E+03   0.157E-11 0.257E+01 0.644E+03   -.132E-22 0.186E-01 -.124E+00
   0.259E+01 -.168E-12 -.643E+03   -.257E+01 -.151E-11 0.644E+03   -.186E-01 0.000E+00 -.124E+00
   -.308E-13 -.105E-11 -.200E+04   0.444E-12 -.416E-12 0.200E+04   0.000E+00 0.132E-22 0.571E+01
   0.163E+02 -.163E+02 -.198E+04   -.164E+02 0.164E+02 0.198E+04   0.732E-01 -.732E-01 0.578E+01
   -.410E-13 0.116E+00 0.208E+04   -.277E-12 -.116E+00 -.207E+04   0.000E+00 0.172E-03 -.679E+01
   0.107E+00 0.525E-12 0.208E+04   -.105E+00 0.131E-10 -.207E+04   -.184E-02 -.529E-22 -.679E+01
   -.538E-13 0.108E-11 0.713E+03   -.165E-10 0.000E+00 -.713E+03   0.000E+00 0.000E+00 0.434E+00
   0.384E+00 0.384E+00 0.713E+03   -.380E+00 -.380E+00 -.713E+03   -.247E-02 -.247E-02 0.497E+00
   -.402E-13 0.259E+01 -.643E+03   0.304E-11 -.257E+01 0.644E+03   -.662E-23 -.186E-01 -.124E+00
   0.350E+01 0.135E-11 -.637E+03   -.343E+01 0.178E-14 0.638E+03   -.744E-01 -.132E-22 -.246E+00
   -.503E-13 0.108E-11 -.199E+04   -.355E-13 -.995E-13 0.198E+04   0.000E+00 0.000E+00 0.571E+01
   0.163E+02 0.163E+02 -.198E+04   -.164E+02 -.164E+02 0.198E+04   0.732E-01 0.732E-01 0.578E+01
   0.887E-12 -.107E+00 0.208E+04   -.129E-10 0.105E+00 -.207E+04   0.000E+00 0.184E-02 -.679E+01
   -.116E+00 -.135E-12 0.208E+04   0.116E+00 0.471E-13 -.207E+04   -.172E-03 0.000E+00 -.679E+01
   0.832E-12 -.296E-12 0.713E+03   0.145E-11 0.150E-10 -.713E+03   0.000E+00 0.265E-22 0.434E+00
   -.384E+00 -.384E+00 0.713E+03   0.380E+00 0.380E+00 -.713E+03   0.247E-02 0.247E-02 0.497E+00
   0.816E-12 -.350E+01 -.637E+03   -.141E-11 0.343E+01 0.638E+03   0.000E+00 0.744E-01 -.246E+00
   -.259E+01 -.131E-12 -.643E+03   0.257E+01 -.156E-11 0.644E+03   0.186E-01 0.000E+00 -.124E+00
   0.885E-12 -.505E-12 -.199E+04   0.782E-13 -.355E-14 0.198E+04   0.000E+00 -.827E-24 0.571E+01
   -.163E+02 -.163E+02 -.198E+04   0.164E+02 0.164E+02 0.198E+04   -.732E-01 -.732E-01 0.578E+01
   0.886E-12 0.107E+00 0.208E+04   -.131E-10 -.105E+00 -.207E+04   0.529E-22 -.184E-02 -.679E+01
   -.107E+00 0.741E-13 0.208E+04   0.105E+00 0.131E-10 -.207E+04   0.184E-02 0.265E-22 -.679E+01
   0.876E-12 0.145E-11 0.713E+03   -.782E-13 0.355E-14 -.713E+03   0.265E-22 -.529E-22 0.569E+00
   -.384E+00 0.384E+00 0.713E+03   0.380E+00 -.380E+00 -.713E+03   0.247E-02 -.247E-02 0.497E+00
   0.821E-12 0.350E+01 -.637E+03   -.284E-13 -.343E+01 0.638E+03   -.265E-22 -.744E-01 -.246E+00
   -.350E+01 -.154E-11 -.637E+03   0.343E+01 0.000E+00 0.638E+03   0.744E-01 0.000E+00 -.246E+00
   0.863E-12 0.129E-11 -.193E+04   -.426E-13 -.391E-13 0.192E+04   0.529E-22 0.000E+00 0.446E+01
   -.163E+02 0.163E+02 -.198E+04   0.164E+02 -.164E+02 0.198E+04   -.732E-01 0.732E-01 0.578E+01
   -.471E-13 -.353E+00 0.534E+03   0.409E-13 0.348E+00 -.534E+03   0.132E-22 0.775E-02 -.851E-01
   0.353E+00 0.438E-13 0.534E+03   -.348E+00 0.391E-13 -.534E+03   -.775E-02 0.662E-23 -.851E-01
   -.605E-13 -.471E-13 0.156E+04   0.853E-11 -.844E-11 -.156E+04   0.000E+00 0.000E+00 0.360E+01
   0.828E-01 -.828E-01 0.156E+04   -.820E-01 0.820E-01 -.156E+04   -.105E-02 0.105E-02 0.360E+01
   -.476E-13 -.683E+01 -.152E+04   -.871E-12 0.677E+01 0.153E+04   -.106E-21 0.576E-01 -.513E+01
   0.683E+01 -.296E-12 -.152E+04   -.677E+01 0.881E-12 0.153E+04   -.576E-01 -.397E-22 -.513E+01
   -.654E-13 0.173E-12 -.479E+03   -.853E-13 0.639E-13 0.479E+03   0.000E+00 0.000E+00 0.259E+00
   0.226E+01 -.226E+01 -.474E+03   -.224E+01 0.224E+01 0.474E+03   -.949E-02 0.949E-02 0.323E+00
   -.681E-13 0.353E+00 0.534E+03   0.142E-13 -.348E+00 -.534E+03   0.000E+00 -.775E-02 -.851E-01
   0.298E+00 0.596E-12 0.534E+03   -.325E+00 -.764E-11 -.534E+03   0.365E-01 -.132E-22 -.105E+00
   -.628E-13 0.465E-12 0.156E+04   0.845E-11 -.796E-12 -.156E+04   0.000E+00 -.662E-23 0.360E+01
   0.828E-01 0.828E-01 0.156E+04   -.820E-01 -.820E-01 -.156E+04   -.105E-02 -.105E-02 0.360E+01
   -.717E-13 0.683E+01 -.152E+04   -.774E-12 -.677E+01 0.153E+04   0.000E+00 -.576E-01 -.513E+01
   0.206E+02 0.572E-12 -.149E+04   -.203E+02 0.810E-11 0.150E+04   -.243E+00 0.529E-22 -.510E+01
   -.614E-13 0.113E-11 -.474E+03   -.741E-11 0.711E-14 0.474E+03   -.132E-22 0.000E+00 0.277E+00
   0.226E+01 0.226E+01 -.474E+03   -.224E+01 -.224E+01 0.474E+03   -.949E-02 -.949E-02 0.323E+00
   0.314E-12 -.298E+00 0.534E+03   0.764E-11 0.325E+00 -.534E+03   0.000E+00 -.365E-01 -.105E+00
   -.353E+00 0.589E-13 0.534E+03   0.348E+00 0.142E-13 -.534E+03   0.775E-02 0.000E+00 -.851E-01
   0.346E-12 0.129E-11 0.156E+04   0.845E-12 -.846E-11 -.156E+04   0.000E+00 0.265E-22 0.360E+01
   -.828E-01 -.828E-01 0.156E+04   0.820E-01 0.820E-01 -.156E+04   0.105E-02 0.105E-02 0.360E+01
   0.325E-12 -.206E+02 -.149E+04   -.816E-11 0.203E+02 0.150E+04   0.496E-23 0.243E+00 -.510E+01
   -.683E+01 -.283E-12 -.152E+04   0.677E+01 0.924E-12 0.153E+04   0.576E-01 -.106E-21 -.513E+01
   0.320E-12 0.572E-13 -.474E+03   -.711E-14 0.738E-11 0.474E+03   -.662E-23 0.000E+00 0.277E+00
   -.226E+01 -.226E+01 -.474E+03   0.224E+01 0.224E+01 0.474E+03   0.949E-02 0.949E-02 0.323E+00
   0.331E-12 0.298E+00 0.534E+03   0.763E-11 -.325E+00 -.534E+03   0.993E-23 0.365E-01 -.105E+00
   -.298E+00 0.152E-11 0.534E+03   0.325E+00 -.769E-11 -.534E+03   -.365E-01 0.132E-22 -.105E+00
   0.338E-12 0.205E-11 0.156E+04   0.824E-12 -.838E-12 -.156E+04   0.000E+00 -.157E-22 0.360E+01
   -.828E-01 0.828E-01 0.156E+04   0.820E-01 -.820E-01 -.156E+04   0.105E-02 -.105E-02 0.360E+01
   0.329E-12 0.206E+02 -.149E+04   -.820E-11 -.203E+02 0.150E+04   0.000E+00 -.243E+00 -.510E+01
   -.206E+02 -.203E-11 -.149E+04   0.203E+02 0.819E-11 0.150E+04   0.243E+00 0.000E+00 -.510E+01
   0.273E-12 0.189E-12 -.475E+03   -.497E-13 0.426E-13 0.475E+03   0.000E+00 0.000E+00 -.190E+00
   -.226E+01 0.226E+01 -.474E+03   0.224E+01 -.224E+01 0.474E+03   0.949E-02 -.949E-02 0.323E+00
 -----------------------------------------------------------------------------------------------
   0.258E-10 0.193E-10 0.512E+02   0.937E-13 -.333E-13 0.284E-11   -.590E-16 0.416E-16 -.512E+02


 POSITION                                       TOTAL-FORCE (eV/Angst)
 -----------------------------------------------------------------------------------
      4.22049      4.22049     16.45814        -0.000000     -0.000000      0.458481
      4.22049      4.22049     17.60496        -0.000000     -0.000000     -0.611891
      0.00000      6.33074      7.50000        -0.000000      0.000063      0.320715
      2.11025      0.00000      7.50000        -0.000063     -0.000000      0.320715
      0.00000      0.00000      9.61025        -0.000000     -0.000000      0.039100
      2.11025      6.33074      9.61025         0.001575     -0.001575      0.041534
      0.00000      6.33023     11.73368        -0.000000     -0.000762      0.022949
      2.11076      0.00000     11.73368         0.000762     -0.000000      0.022949
      0.00000      0.00000     13.83822        -0.000000     -0.000000      0.023722
      2.10905      6.33193     13.83447        -0.006299      0.006299      0.018472
      0.00000      2.11025      7.50000        -0.000000     -0.000063      0.320715
      2.11025      4.22049      7.50000         0.000417     -0.000000      0.320780
      0.00000      4.22049      9.61025        -0.000000     -0.000000      0.048960
      2.11025      2.11025      9.61025         0.001575      0.001575      0.041534
      0.00000      2.11076     11.73368        -0.000000      0.000762      0.022949
      2.11344      4.22049     11.73659        -0.006603     -0.000000      0.029662
      0.00000      4.22049     13.83544        -0.000000     -0.000000      0.020363
      2.10905      2.10905     13.83447        -0.006299     -0.006299      0.018472
      4.22049      6.33074      7.50000        -0.000000     -0.000417      0.320780
      6.33074      0.00000      7.50000         0.000063     -0.000000      0.320715
      4.22049      0.00000      9.61025        -0.000000     -0.000000      0.048960
      6.33074      6.33074      9.61025        -0.001575     -0.001575      0.041534
      4.22049      6.32754     11.73659        -0.000000      0.006603      0.029662
      6.33023      0.00000     11.73368        -0.000762     -0.000000      0.022949
      4.22049      0.00000     13.83544        -0.000000     -0.000000      0.020363
      6.33193      6.33193     13.83447         0.006299      0.006299      0.018472
      4.22049      2.11025      7.50000        -0.000000      0.000417      0.320780
      6.33074      4.22049      7.50000        -0.000417     -0.000000      0.320780
      4.22049      4.22049      9.61025        -0.000000     -0.000000      0.049697
      6.33074      2.11025      9.61025        -0.001575      0.001575      0.041534
      4.22049      2.11344     11.73659        -0.000000     -0.006603      0.029662
      6.32754      4.22049     11.73659         0.006603     -0.000000      0.029662
      4.22049      4.22049     13.87814        -0.000000     -0.000000      0.190089
      6.33193      2.10905     13.83447         0.006299     -0.006299      0.018472
      0.00000      6.33074      9.61025        -0.000000      0.002262      0.064920
      2.11025      0.00000      9.61025        -0.002262     -0.000000      0.064920
      0.00000      0.00000      7.50000        -0.000000     -0.000000     -0.402236
      2.11025      6.33074      7.50000        -0.000305      0.000305     -0.401995
      0.00000      6.33258     13.88587        -0.000000     -0.001346     -0.096581
      2.10840      0.00000     13.88587         0.001346     -0.000000     -0.096581
      0.00000      0.00000     11.72785        -0.000000     -0.000000      0.016859
      2.10979      6.33120     11.72890         0.002407     -0.002407      0.009386
      0.00000      2.11025      9.61025        -0.000000     -0.002262      0.064920
      2.11025      4.22049      9.61025         0.009483     -0.000000      0.073423
      0.00000      4.22049      7.50000        -0.000000     -0.000000     -0.402103
      2.11025      2.11025      7.50000        -0.000305     -0.000305     -0.401995
      0.00000      2.10840     13.88587        -0.000000      0.001346     -0.096581
      2.10031      4.22049     13.88381         0.022211     -0.000000     -0.085407
      0.00000      4.22049     11.72684        -0.000000     -0.000000      0.013000
      2.10979      2.10979     11.72890         0.002407      0.002407      0.009386
      4.22049      6.33074      9.61025        -0.000000     -0.009483      0.073423
      6.33074      0.00000      9.61025         0.002262     -0.000000      0.064920
      4.22049      0.00000      7.50000        -0.000000     -0.000000     -0.402103
      6.33074      6.33074      7.50000         0.000305      0.000305     -0.401995
      4.22049      6.34068     13.88381        -0.000000     -0.022211     -0.085407
      6.33258      0.00000     13.88587        -0.001346     -0.000000     -0.096581
      4.22049      0.00000     11.72684        -0.000000     -0.000000      0.013000
      6.33120      6.33120     11.72890        -0.002407     -0.002407      0.009386
      4.22049      2.11025      9.61025        -0.000000      0.009483      0.073423
      6.33074      4.22049      9.61025        -0.009483     -0.000000      0.073423
      4.22049      4.22049      7.50000        -0.000000     -0.000000     -0.402740
      6.33074      2.11025      7.50000         0.000305     -0.000305     -0.401995
      4.22049      2.10031     13.88381        -0.000000      0.022211     -0.085407
      6.34068      4.22049     13.88381        -0.022211     -0.000000     -0.085407
      4.22049      4.22049     11.73684        -0.000000     -0.000000      0.007046
      6.33120      2.10979     11.72890        -0.002407      0.002407      0.009386
 -----------------------------------------------------------------------------------
    total drift:                                0.000000      0.000000      0.002049


--------------------------------------------------------------------------------------------------------



  FREE ENERGIE OF THE ION-ELECTRON SYSTEM (eV)
  ---------------------------------------------------
  free  energy   TOTEN  =      -277.37374515 eV

  energy  without entropy=     -277.37374515  energy(sigma->0) =     -277.37374515



--------------------------------------------------------------------------------------------------------


    POTLOK:  cpu time      0.5289: real time      0.5289


--------------------------------------------------------------------------------------------------------


     LOOP+:  cpu time     61.4019: real time     61.7619
    4ORBIT:  cpu time      0.0000: real time      0.0000

 total amount of memory used by VASP MPI-rank0    78528. kBytes
=======================================================================

   base      :      30000. kBytes
   nonl-proj :      29343. kBytes
   fftplans  :       3857. kBytes
   grid      :       5885. kBytes
   one-center:        137. kBytes
   wavefun   :       9306. kBytes

  
  
 General timing and accounting informations for this job:
 ========================================================
  
                  Total CPU time used (sec):       79.538
                            User time (sec):       77.121
                          System time (sec):        2.417
                         Elapsed time (sec):       84.552
  
                   Maximum memory used (kb):      267388.
                   Average memory used (kb):          N/A
  
                          Minor page faults:        32516
                          Major page faults:           50
                 Voluntary context switches:         7365
