 vasp.6.3.0 20Jan22 (build Apr  1 2022 16:44:48) complex                         
 executed on        HPECrayEX_GCC date 2022.09.30  22:13:12
 running  512 mpi-ranks, with    1 threads/rank
 distrk:  each k-point on  256 cores,    2 groups
 distr:  one band on NCORE=   4 cores,   64 groups


--------------------------------------------------------------------------------------------------------


 INCAR:
   SYSTEM = MgO-rocksalt
   ISMEAR = 0
   SIGMA = 0.05
   EDIFF = 1E-5
   ALGO = ALL
   ISTART = 0
   IBRION = -1
   NSW = 0
   ISYM = 2
   ISIF = 2
   DIPOL = 0.5 0.5 0.5
   IDIPOL = 3
   LDIPOL = .TRUE.
   GGA = RE
   IVDW = 13
   VDW_S8 = 1.7468
   VDW_A1 = 0.5363
   VDW_A2 = 3.0726
   ENCUT = 600
   PREC = Normal
   LASPH = .TRUE.
   LREAL = .FALSE.
   ISPIN = 1
   NELM = 200
   NELMIN = 8
   NCORE = 4
   KPAR = 2
   LWAVE = .FALSE.
   LCHARG = .FALSE.

 POTCAR:    PAW_PBE Mg_pv 13Apr2007               
 POTCAR:    PAW_PBE O 08Apr2002                   
 POTCAR:    PAW_PBE Mg_pv 13Apr2007               
   SHA256 =  f474ac0dd33840b9ae76c01d57fea79fdf77cdfbb07d5ade72c65f83c709b62b Mg_pv/POTCAR          
   COPYR  = (c) Copyright 13Apr2007 Georg Kresse                                                    
   COPYR  = This file is part of the software VASP. Any use, copying, and all other rights are regul
   COPYR  = If you do not have a valid VASP license, you may not use, copy or distribute this file. 
   VRHFIN =Mg: p6s2                                                                                 
   LEXCH  = PE                                                                                      
   EATOM  =  1056.7344 eV,   77.6678 Ry                                                             
                                                                                                    
   TITEL  = PAW_PBE Mg_pv 13Apr2007                                                                 
   LULTRA =        F    use ultrasoft PP ?                                                          
   IUNSCR =        1    unscreen: 0-lin 1-nonlin 2-no                                               
   RPACOR =    1.500    partial core radius                                                         
   POMASS =   24.305; ZVAL   =    8.000    mass and valenz                                          
   RCORE  =    2.000    outmost cutoff radius                                                       
   RWIGS  =    2.000; RWIGS  =    1.058    wigner-seitz radius (au A)                               
   ENMAX  =  403.929; ENMIN  =  302.947 eV                                                          
   RCLOC  =    1.506    cutoff for local pot                                                        
   LCOR   =        T    correct aug charges                                                         
   LPAW   =        T    paw PP                                                                      
   EAUG   =  758.780                                                                                
   DEXC   =    0.000                                                                                
   RMAX   =    2.045    core radius for proj-oper                                                   
   RAUG   =    1.300    factor for augmentation sphere                                              
   RDEP   =    2.025    radius for radial grids                                                     
   RDEPT  =    1.557    core radius for aug-charge                                                  
                                                                                                    
   Atomic configuration                                                                             
    5 entries                                                                                       
     n  l   j            E        occ.                                                              
     1  0  0.50     -1259.6230   2.0000                                                             
     2  0  0.50       -79.8442   2.0000                                                             
     2  1  1.50       -46.6121   6.0000                                                             
     3  0  0.50        -4.7055   2.0000                                                             
     3  2  1.50        -1.3606   0.0000                                                             
   Description                                                                                      
     l       E           TYP  RCUT    TYP  RCUT                                                     
     1    -46.6121073     23  1.600                                                                 
     1      2.7211652     23  1.600                                                                 
     0     -4.7054661     23  2.000                                                                 
     0     61.2262170     23  2.000                                                                 
     2     -1.3605826     23  2.000                                                                 
  local pseudopotential read in
  partial core-charges read in
  partial kinetic energy density read in
  atomic valenz-charges read in
  non local Contribution for L=           1  read in
    real space projection operators read in
  non local Contribution for L=           1  read in
    real space projection operators read in
  non local Contribution for L=           0  read in
    real space projection operators read in
  non local Contribution for L=           0  read in
    real space projection operators read in
  non local Contribution for L=           2  read in
    real space projection operators read in
    PAW grid and wavefunctions read in

   number of l-projection  operators is LMAX  =           5
   number of lm-projection operators is LMMAX =          13

 POTCAR:    PAW_PBE O 08Apr2002                   
   SHA256 =  818f92134a0a090dccd8ba1447fa70422a3b330e708bb4f08108d8ae51209ddf O/POTCAR              
   COPYR  = (c) Copyright 08Apr2002 Georg Kresse                                                    
   COPYR  = This file is part of the software VASP. Any use, copying, and all other rights are regul
   COPYR  = If you do not have a valid VASP license, you may not use, copy or distribute this file. 
   VRHFIN =O: s2p4                                                                                  
   LEXCH  = PE                                                                                      
   EATOM  =   432.3788 eV,   31.7789 Ry                                                             
                                                                                                    
   TITEL  = PAW_PBE O 08Apr2002                                                                     
   LULTRA =        F    use ultrasoft PP ?                                                          
   IUNSCR =        1    unscreen: 0-lin 1-nonlin 2-no                                               
   RPACOR =    1.200    partial core radius                                                         
   POMASS =   16.000; ZVAL   =    6.000    mass and valenz                                          
   RCORE  =    1.520    outmost cutoff radius                                                       
   RWIGS  =    1.550; RWIGS  =    0.820    wigner-seitz radius (au A)                               
   ENMAX  =  400.000; ENMIN  =  300.000 eV                                                          
   ICORE  =        2    local potential                                                             
   LCOR   =        T    correct aug charges                                                         
   LPAW   =        T    paw PP                                                                      
   EAUG   =  605.392                                                                                
   DEXC   =    0.000                                                                                
   RMAX   =    1.553    core radius for proj-oper                                                   
   RAUG   =    1.300    factor for augmentation sphere                                              
   RDEP   =    1.550    radius for radial grids                                                     
   RDEPT  =    1.329    core radius for aug-charge                                                  
                                                                                                    
   Atomic configuration                                                                             
    4 entries                                                                                       
     n  l   j            E        occ.                                                              
     1  0  0.50      -514.6923   2.0000                                                             
     2  0  0.50       -23.9615   2.0000                                                             
     2  1  0.50        -9.0305   4.0000                                                             
     3  2  1.50        -9.5241   0.0000                                                             
   Description                                                                                      
     l       E           TYP  RCUT    TYP  RCUT                                                     
     0    -23.9615318     23  1.200                                                                 
     0     -9.5240782     23  1.200                                                                 
     1     -9.0304911     23  1.520                                                                 
     1      8.1634956     23  1.520                                                                 
     2     -9.5240782      7  1.500                                                                 
  local pseudopotential read in
  partial core-charges read in
  partial kinetic energy density read in
  kinetic energy density of atom read in
  atomic valenz-charges read in
  non local Contribution for L=           0  read in
    real space projection operators read in
  non local Contribution for L=           0  read in
    real space projection operators read in
  non local Contribution for L=           1  read in
    real space projection operators read in
  non local Contribution for L=           1  read in
    real space projection operators read in
    PAW grid and wavefunctions read in

   number of l-projection  operators is LMAX  =           4
   number of lm-projection operators is LMMAX =           8

 -----------------------------------------------------------------------------
|                                                                             |
|               ----> ADVICE to this user running VASP <----                  |
|                                                                             |
|     You have a (more or less) 'large supercell' and for larger cells it     |
|     might be more efficient to use real-space projection operators.         |
|     Therefore, try LREAL= Auto in the INCAR file.                           |
|     Mind: For very accurate calculation, you might also keep the            |
|     reciprocal projection scheme (i.e. LREAL=.FALSE.).                      |
|                                                                             |
 -----------------------------------------------------------------------------

 -----------------------------------------------------------------------------
|                                                                             |
|               ----> ADVICE to this user running VASP <----                  |
|                                                                             |
|     You enforced a specific xc type in the INCAR file but a different       |
|     type was found in the POTCAR file.                                      |
|     I HOPE YOU KNOW WHAT YOU ARE DOING!                                     |
|                                                                             |
 -----------------------------------------------------------------------------

  PAW_PBE Mg_pv 13Apr2007               :
 energy of atom  1       EATOM=-1056.7344
 kinetic energy error for atom=    0.0221 (will be added to EATOM!!)
  PAW_PBE O 08Apr2002                   :
 energy of atom  2       EATOM= -432.3788
 kinetic energy error for atom=    0.0168 (will be added to EATOM!!)


 POSCAR: Mg  O
  positions in direct lattice
  No initial velocities read in
 -----------------------------------------------------------------------------
|                                                                             |
|           W    W    AA    RRRRR   N    N  II  N    N   GGGG   !!!           |
|           W    W   A  A   R    R  NN   N  II  NN   N  G    G  !!!           |
|           W    W  A    A  R    R  N N  N  II  N N  N  G       !!!           |
|           W WW W  AAAAAA  RRRRR   N  N N  II  N  N N  G  GGG   !            |
|           WW  WW  A    A  R   R   N   NN  II  N   NN  G    G                |
|           W    W  A    A  R    R  N    N  II  N    N   GGGG   !!!           |
|                                                                             |
|     Specifying the vdW parameters                                           |
|     VDW_S8 = 1.747                                                          |
|     VDW_A1 = 0.536                                                          |
|     VDW_A2 = 3.073                                                          |
|     in the INCAR file will overwrite the defaults for revpbe. Please        |
|     make sure that is what you intended.                                    |
|                                                                             |
 -----------------------------------------------------------------------------

 exchange correlation table for  LEXCH =       40
   RHO(1)=    0.500       N(1)  =     2000
   RHO(2)=  100.500       N(2)  =     4000



--------------------------------------------------------------------------------------------------------


 ion  position               nearest neighbor table
   1  0.000  0.750  0.352-  33 2.11  35 2.11  36 2.11  43 2.11  52 2.11
   2  0.250  0.000  0.352-  34 2.11  35 2.11  36 2.11  44 2.11  51 2.11
   3  0.000  0.000  0.451-  35 2.11  34 2.11  33 2.11  41 2.11  50 2.11  39 2.12
   4  0.250  0.750  0.451-  36 2.11  34 2.11  33 2.11  42 2.11  49 2.11  40 2.12
   5  0.000  0.750  0.550-  47 2.11  40 2.11  56 2.11  39 2.11  33 2.12  37 2.15
   6  0.250  0.000  0.550-  55 2.11  48 2.11  40 2.11  39 2.11  34 2.12  38 2.15
   7  0.000  0.000  0.649-  37 2.11  38 2.11  45 2.11  54 2.11  39 2.11
   8  0.250  0.750  0.649-  40 2.11  38 2.11  37 2.11  46 2.11  53 2.11
   9  0.000  0.250  0.352-  41 2.11  35 2.11  43 2.11  44 2.11  60 2.11
  10  0.250  0.500  0.352-  42 2.11  36 2.11  43 2.11  44 2.11  59 2.11
  11  0.000  0.500  0.451-  43 2.11  41 2.11  42 2.11  33 2.11  58 2.11  47 2.12
  12  0.250  0.250  0.451-  44 2.11  41 2.11  42 2.11  34 2.11  57 2.11  48 2.12
  13  0.000  0.250  0.550-  47 2.11  48 2.11  64 2.11  39 2.11  41 2.12  45 2.15
  14  0.250  0.500  0.550-  63 2.11  48 2.11  40 2.11  47 2.11  42 2.13  46 2.15
  15  0.000  0.500  0.649-  46 2.10  62 2.10  47 2.11  45 2.11  37 2.11
  16  0.250  0.250  0.649-  48 2.11  45 2.11  38 2.11  46 2.11  61 2.11
  17  0.500  0.750  0.352-  49 2.11  36 2.11  51 2.11  52 2.11  59 2.11
  18  0.750  0.000  0.352-  50 2.11  35 2.11  51 2.11  52 2.11  60 2.11
  19  0.500  0.000  0.451-  51 2.11  49 2.11  50 2.11  34 2.11  57 2.11  55 2.12
  20  0.750  0.750  0.451-  52 2.11  49 2.11  50 2.11  33 2.11  58 2.11  56 2.12
  21  0.500  0.750  0.550-  63 2.11  56 2.11  40 2.11  55 2.11  49 2.13  53 2.15
  22  0.750  0.000  0.550-  55 2.11  56 2.11  64 2.11  39 2.11  50 2.12  54 2.15
  23  0.500  0.000  0.649-  53 2.10  61 2.10  55 2.11  38 2.11  54 2.11
  24  0.750  0.750  0.649-  56 2.11  54 2.11  37 2.11  53 2.11  62 2.11
  25  0.500  0.250  0.352-  57 2.11  51 2.11  44 2.11  59 2.11  60 2.11
  26  0.750  0.500  0.352-  58 2.11  52 2.11  43 2.11  59 2.11  60 2.11
  27  0.500  0.500  0.451-  59 2.11  49 2.11  57 2.11  58 2.11  42 2.11  63 2.13
  28  0.750  0.250  0.451-  60 2.11  50 2.11  57 2.11  58 2.11  41 2.11  64 2.12
  29  0.500  0.250  0.550-  63 2.11  48 2.11  64 2.11  55 2.11  57 2.13  61 2.15
  30  0.750  0.500  0.550-  63 2.11  56 2.11  64 2.11  47 2.11  58 2.13  62 2.15
  31  0.500  0.500  0.651-  46 2.12  53 2.12  61 2.12  62 2.12  63 2.14
  32  0.750  0.250  0.649-  64 2.11  54 2.11  45 2.11  62 2.11  61 2.11
  33  0.000  0.750  0.451-   1 2.11   3 2.11   4 2.11  11 2.11  20 2.11   5 2.12
  34  0.250  0.000  0.451-   2 2.11   3 2.11   4 2.11  12 2.11  19 2.11   6 2.12
  35  0.000  0.000  0.352-   3 2.11   2 2.11   1 2.11   9 2.11  18 2.11
  36  0.250  0.750  0.352-   4 2.11   2 2.11   1 2.11  10 2.11  17 2.11
  37  0.000  0.750  0.651-   7 2.11   8 2.11  24 2.11  15 2.11   5 2.15
  38  0.250  0.000  0.651-   7 2.11   8 2.11  16 2.11  23 2.11   6 2.15
  39  0.000  0.000  0.550-   7 2.11   6 2.11   5 2.11  13 2.11  22 2.11   3 2.12
  40  0.250  0.750  0.550-   8 2.11   6 2.11   5 2.11  14 2.11  21 2.11   4 2.12
  41  0.000  0.250  0.451-   9 2.11   3 2.11  11 2.11  12 2.11  28 2.11  13 2.12
  42  0.250  0.500  0.451-  10 2.11   4 2.11  11 2.11  12 2.11  27 2.11  14 2.13
  43  0.000  0.500  0.352-  11 2.11   9 2.11  10 2.11   1 2.11  26 2.11
  44  0.250  0.250  0.352-  12 2.11   9 2.11  10 2.11   2 2.11  25 2.11
  45  0.000  0.250  0.651-   7 2.11  16 2.11  32 2.11  15 2.11  13 2.15
  46  0.249  0.500  0.651-  15 2.10   8 2.11  16 2.11  31 2.12  14 2.15
  47  0.000  0.500  0.550-  15 2.11  13 2.11   5 2.11  14 2.11  30 2.11  11 2.12
  48  0.250  0.250  0.550-  16 2.11  13 2.11   6 2.11  14 2.11  29 2.11  12 2.12
  49  0.500  0.750  0.451-  17 2.11   4 2.11  19 2.11  20 2.11  27 2.11  21 2.13
  50  0.750  0.000  0.451-  18 2.11   3 2.11  19 2.11  20 2.11  28 2.11  22 2.12
  51  0.500  0.000  0.352-  19 2.11  17 2.11  18 2.11   2 2.11  25 2.11
  52  0.750  0.750  0.352-  20 2.11  17 2.11  18 2.11   1 2.11  26 2.11
  53  0.500  0.751  0.651-  23 2.10   8 2.11  24 2.11  31 2.12  21 2.15
  54  0.750  0.000  0.651-   7 2.11  24 2.11  32 2.11  23 2.11  22 2.15
  55  0.500  0.000  0.550-  23 2.11  22 2.11   6 2.11  21 2.11  29 2.11  19 2.12
  56  0.750  0.750  0.550-  24 2.11  22 2.11   5 2.11  30 2.11  21 2.11  20 2.12
  57  0.500  0.250  0.451-  25 2.11  19 2.11  12 2.11  27 2.11  28 2.11  29 2.13
  58  0.750  0.500  0.451-  26 2.11  20 2.11  11 2.11  27 2.11  28 2.11  30 2.13
  59  0.500  0.500  0.352-  27 2.11  17 2.11  25 2.11  26 2.11  10 2.11
  60  0.750  0.250  0.352-  28 2.11  18 2.11  25 2.11  26 2.11   9 2.11
  61  0.500  0.249  0.651-  23 2.10  16 2.11  32 2.11  31 2.12  29 2.15
  62  0.751  0.500  0.651-  15 2.10  24 2.11  32 2.11  31 2.12  30 2.15
  63  0.500  0.500  0.550-  14 2.11  21 2.11  29 2.11  30 2.11  27 2.13  31 2.14
  64  0.750  0.250  0.550-  32 2.11  22 2.11  13 2.11  30 2.11  29 2.11  28 2.12

  LATTYP: Found a simple tetragonal cell.
 ALAT       =     8.4409846542
 C/A-ratio  =     2.5270438657
  
  Lattice vectors:
  
 A1 = (   8.4409846542,   0.0000000000,   0.0000000000)
 A2 = (   0.0000000000,   8.4409846542,   0.0000000000)
 A3 = (   0.0000000000,   0.0000000000,  21.3307384906)


Analysis of symmetry for initial positions (statically):
=====================================================================
 Subroutine PRICEL returns:
 Original cell was already a primitive cell.
 

 Routine SETGRP: Setting up the symmetry group for a 
 simple tetragonal supercell.


 Subroutine GETGRP returns: Found  8 space group operations
 (whereof  8 operations were pure point group operations)
 out of a pool of 16 trial point group operations.


The static configuration has the point symmetry C_4v.


Analysis of symmetry for dynamics (positions and initial velocities):
=====================================================================
 Subroutine PRICEL returns:
 Original cell was already a primitive cell.
 

 Routine SETGRP: Setting up the symmetry group for a 
 simple tetragonal supercell.


 Subroutine GETGRP returns: Found  8 space group operations
 (whereof  8 operations were pure point group operations)
 out of a pool of 16 trial point group operations.


The dynamic configuration has the point symmetry C_4v.


Analysis of constrained symmetry for selective dynamics:
=====================================================================
 Subroutine PRICEL returns:
 Original cell was already a primitive cell.
 

 Routine SETGRP: Setting up the symmetry group for a 
 simple tetragonal supercell.


 Subroutine GETGRP returns: Found  8 space group operations
 (whereof  8 operations were pure point group operations)
 out of a pool of 16 trial point group operations.


The constrained configuration has the point symmetry C_4v.


 Subroutine INISYM returns: Found  8 space group operations
 (whereof  8 operations are pure point group operations),
 and found     1 'primitive' translations


----------------------------------------------------------------------------------------

                                     Primitive cell                                     

  volume of cell :    1519.8199

  direct lattice vectors                    reciprocal lattice vectors
     8.440984654  0.000000000  0.000000000     0.118469591  0.000000000  0.000000000
     0.000000000  8.440984654  0.000000000     0.000000000  0.118469591  0.000000000
     0.000000000  0.000000000 21.330738491     0.000000000  0.000000000  0.046880702

  length of vectors
     8.440984654  8.440984654 21.330738491     0.118469591  0.118469591  0.046880702

  position of ions in fractional coordinates (direct lattice)
     0.000000000  0.750000000  0.351605267
     0.250000000  0.000000000  0.351605267
     0.000000000  0.000000000  0.450535089
     0.250000000  0.750000000  0.450535089
     0.000000000  0.749939268  0.550083239
     0.250060732  0.000000000  0.550083239
     0.000000000  0.000000000  0.648745309
     0.249858327  0.750141673  0.648569547
     0.000000000  0.250000000  0.351605267
     0.250000000  0.500000000  0.351605267
     0.000000000  0.500000000  0.450535089
     0.250000000  0.250000000  0.450535089
     0.000000000  0.250060732  0.550083239
     0.250378379  0.500000000  0.550219524
     0.000000000  0.500000000  0.648615280
     0.249858327  0.249858327  0.648569547
     0.500000000  0.750000000  0.351605267
     0.750000000  0.000000000  0.351605267
     0.500000000  0.000000000  0.450535089
     0.750000000  0.750000000  0.450535089
     0.500000000  0.749621621  0.550219524
     0.749939268  0.000000000  0.550083239
     0.500000000  0.000000000  0.648615280
     0.750141673  0.750141673  0.648569547
     0.500000000  0.250000000  0.351605267
     0.750000000  0.500000000  0.351605267
     0.500000000  0.500000000  0.450535089
     0.750000000  0.250000000  0.450535089
     0.500000000  0.250378379  0.550219524
     0.749621621  0.500000000  0.550219524
     0.500000000  0.500000000  0.650616960
     0.750141673  0.249858327  0.648569547
     0.000000000  0.750000000  0.450535089
     0.250000000  0.000000000  0.450535089
     0.000000000  0.000000000  0.351605267
     0.250000000  0.750000000  0.351605267
     0.000000000  0.750218533  0.650979255
     0.249781467  0.000000000  0.650979255
     0.000000000  0.000000000  0.549809890
     0.249945770  0.750054230  0.549859113
     0.000000000  0.250000000  0.450535089
     0.250000000  0.500000000  0.450535089
     0.000000000  0.500000000  0.351605267
     0.250000000  0.250000000  0.351605267
     0.000000000  0.249781467  0.650979255
     0.248822710  0.500000000  0.650882872
     0.000000000  0.500000000  0.549762666
     0.249945770  0.249945770  0.549859113
     0.500000000  0.750000000  0.450535089
     0.750000000  0.000000000  0.450535089
     0.500000000  0.000000000  0.351605267
     0.750000000  0.750000000  0.351605267
     0.500000000  0.751177290  0.650882872
     0.750218533  0.000000000  0.650979255
     0.500000000  0.000000000  0.549762666
     0.750054230  0.750054230  0.549859113
     0.500000000  0.250000000  0.450535089
     0.750000000  0.500000000  0.450535089
     0.500000000  0.500000000  0.351605267
     0.750000000  0.250000000  0.351605267
     0.500000000  0.248822710  0.650882872
     0.751177290  0.500000000  0.650882872
     0.500000000  0.500000000  0.550231357
     0.750054230  0.249945770  0.549859113

  ion indices of the primitive-cell ions
   primitive index   ion index
                 1           1
                 2           2
                 3           3
                 4           4
                 5           5
                 6           6
                 7           7
                 8           8
                 9           9
                10          10
                11          11
                12          12
                13          13
                14          14
                15          15
                16          16
                17          17
                18          18
                19          19
                20          20
                21          21
                22          22
                23          23
                24          24
                25          25
                26          26
                27          27
                28          28
                29          29
                30          30
                31          31
                32          32
                33          33
                34          34
                35          35
                36          36
                37          37
                38          38
                39          39
                40          40
                41          41
                42          42
                43          43
                44          44
                45          45
                46          46
                47          47
                48          48
                49          49
                50          50
                51          51
                52          52
                53          53
                54          54
                55          55
                56          56
                57          57
                58          58
                59          59
                60          60
                61          61
                62          62
                63          63
                64          64

----------------------------------------------------------------------------------------



 KPOINTS: pymatgen v2020.8.13 with grid density = 

Automatic generation of k-mesh.
 Grid dimensions read from file:
 generate k-points for:    2    2    1

 Generating k-lattice:

  Cartesian coordinates                     Fractional coordinates (reciprocal lattice)
     0.059234796  0.000000000  0.000000000     0.500000000  0.000000000  0.000000000
     0.000000000  0.059234796  0.000000000     0.000000000  0.500000000  0.000000000
     0.000000000  0.000000000  0.046880702     0.000000000  0.000000000  1.000000000

  Length of vectors
     0.059234796  0.059234796  0.046880702

  Shift w.r.t. Gamma in fractional coordinates (k-lattice)
     0.000000000  0.000000000  0.000000000

 
 Subroutine IBZKPT returns following result:
 ===========================================
 
 Found      3 irreducible k-points:
 
 Following reciprocal coordinates:
            Coordinates               Weight
  0.000000  0.000000  0.000000      1.000000
  0.500000  0.000000  0.000000      2.000000
  0.500000  0.500000  0.000000      1.000000
 
 Following cartesian coordinates:
            Coordinates               Weight
  0.000000  0.000000  0.000000      1.000000
  0.059235  0.000000  0.000000      2.000000
  0.059235  0.059235  0.000000      1.000000
 


--------------------------------------------------------------------------------------------------------




 Dimension of arrays:
   k-points           NKPTS =      3   k-points in BZ     NKDIM =      3   number of bands    NBANDS=    320
   number of dos      NEDOS =    301   number of ions     NIONS =     64
   non local maximal  LDIM  =      5   non local SUM 2l+1 LMDIM =     13
   total plane-waves  NPLWV = 373248
   max r-space proj   IRMAX =      1   max aug-charges    IRDMAX=   5039
   dimension x,y,z NGX =    54 NGY =   54 NGZ =  128
   dimension x,y,z NGXF=   108 NGYF=  108 NGZF=  256
   support grid    NGXF=   108 NGYF=  108 NGZF=  256
   ions per type =              32  32
   NGX,Y,Z   is equivalent  to a cutoff of  10.64, 10.64,  9.98 a.u.
   NGXF,Y,Z  is equivalent  to a cutoff of  21.27, 21.27, 19.95 a.u.

 SYSTEM =  MgO-rocksalt                            
 POSCAR =  Mg  O                                   

 Startparameter for this run:
   NWRITE =      2    write-flag & timer
   PREC   = normal    normal or accurate (medium, high low for compatibility)
   ISTART =      0    job   : 0-new  1-cont  2-samecut
   ICHARG =      2    charge: 1-file 2-atom 10-const
   ISPIN  =      1    spin polarized calculation?
   LNONCOLLINEAR =      F non collinear calculations
   LSORBIT =      F    spin-orbit coupling
   INIWAV =      1    electr: 0-lowe 1-rand  2-diag
   LASPH  =      T    aspherical Exc in radial PAW
 Electronic Relaxation 1
   ENCUT  =  600.0 eV  44.10 Ry    6.64 a.u.  16.86 16.86 42.60*2*pi/ulx,y,z
   ENINI  =  600.0     initial cutoff
   ENAUG  =  758.8 eV  augmentation charge cutoff
   NELM   =    200;   NELMIN=  8; NELMDL= -5     # of ELM steps 
   EDIFF  = 0.1E-04   stopping-criterion for ELM
   LREAL  =      F    real-space projection
   NLSPLINE    = F    spline interpolate recip. space projectors
   LCOMPAT=      F    compatible to vasp.4.4
   GGA_COMPAT  = T    GGA compatible to vasp.4.4-vasp.4.6
   LMAXPAW     = -100 max onsite density
   LMAXMIX     =    2 max onsite mixed and CHGCAR
   VOSKOWN=      0    Vosko Wilk Nusair interpolation
   ROPT   =    0.00000   0.00000
 Ionic relaxation
   EDIFFG = 0.1E-03   stopping-criterion for IOM
   NSW    =      0    number of steps for IOM
   NBLOCK =      1;   KBLOCK =      1    inner block; outer block 
   IBRION =     -1    ionic relax: 0-MD 1-quasi-New 2-CG
   NFREE  =      0    steps in history (QN), initial steepest desc. (CG)
   ISIF   =      2    stress and relaxation
   IWAVPR =     10    prediction:  0-non 1-charg 2-wave 3-comb
   ISYM   =      2    0-nonsym 1-usesym 2-fastsym
   LCORR  =      T    Harris-Foulkes like correction to forces

   POTIM  = 0.5000    time-step for ionic-motion
   TEIN   =    0.0    initial temperature
   TEBEG  =    0.0;   TEEND  =   0.0 temperature during run
   SMASS  =  -3.00    Nose mass-parameter (am)
   estimated Nose-frequenzy (Omega)   =  0.10E-29 period in steps = 0.13E+47 mass=  -0.163E-26a.u.
   SCALEE = 1.0000    scale energy and forces
   NPACO  =    256;   APACO  = 10.0  distance and # of slots for P.C.
   PSTRESS=    0.0 pullay stress

  Mass of Ions in am
   POMASS =  24.30 16.00
  Ionic Valenz
   ZVAL   =   8.00  6.00
  Atomic Wigner-Seitz radii
   RWIGS  =  -1.00 -1.00
  virtual crystal weights 
   VCA    =   1.00  1.00
   NELECT =     448.0000    total number of electrons
   NUPDOWN=      -1.0000    fix difference up-down

 DOS related values:
   EMIN   =  10.00;   EMAX   =-10.00  energy-range for DOS
   EFERMI =   0.00
   ISMEAR =     0;   SIGMA  =   0.05  broadening in eV -4-tet -1-fermi 0-gaus

 Electronic relaxation 2 (details)
   IALGO  =     58    algorithm
   LDIAG  =      T    sub-space diagonalisation (order eigenvalues)
   LSUBROT=      F    optimize rotation matrix (better conditioning)
   TURBO    =      0    0=normal 1=particle mesh
   IRESTART =      0    0=no restart 2=restart with 2 vectors
   NREBOOT  =      0    no. of reboots
   NMIN     =      0    reboot dimension
   EREF     =   0.00    reference energy to select bands
   IMIX   =      4    mixing-type and parameters
     AMIX     =   0.40;   BMIX     =  1.00
     AMIX_MAG =   1.60;   BMIX_MAG =  1.00
     AMIN     =   0.10
     WC   =   100.;   INIMIX=   1;  MIXPRE=   1;  MAXMIX= -45

 Intra band minimization:
   WEIMIN = 0.0000     energy-eigenvalue tresh-hold
   EBREAK =  0.78E-08  absolut break condition
   DEPER  =   0.30     relativ break condition  

   TIME   =   0.40     timestep for ELM

  volume/ion in A,a.u.               =      23.75       160.25
  Fermi-wavevector in a.u.,A,eV,Ry     =   1.089524  2.058902 16.150966  1.187063
  Thomas-Fermi vector in A             =   2.225729

 Write flags
   LWAVE        =      F    write WAVECAR
   LDOWNSAMPLE  =      F    k-point downsampling of WAVECAR
   LCHARG       =      F    write CHGCAR
   LVTOT        =      F    write LOCPOT, total local potential
   LVHAR        =      F    write LOCPOT, Hartree potential only
   LELF         =      F    write electronic localiz. function (ELF)
   LORBIT       =      0    0 simple, 1 ext, 2 COOP (PROOUT), +10 PAW based schemes


 Dipole corrections
   LMONO  =      F    monopole corrections only (constant potential shift)
   LDIPOL =      T    correct potential (dipole corrections)
   IDIPOL =      3    1-x, 2-y, 3-z, 4-all directions 
   EPSILON=  1.0000000 bulk dielectric constant

 Exchange correlation treatment:
   GGA     =    RE    GGA type
   LEXCH   =    40    internal setting for exchange type
   LIBXC   =     F    Libxc                    
   VOSKOWN =     0    Vosko Wilk Nusair interpolation
   LHFCALC =     F    Hartree Fock is set to
   LHFONE  =     F    Hartree Fock one center treatment
   AEXX    =    0.0000 exact exchange contribution

 Linear response parameters
   LEPSILON=     F    determine dielectric tensor
   LRPA    =     F    only Hartree local field effects (RPA)
   LNABLA  =     F    use nabla operator in PAW spheres
   LVEL    =     F    velocity operator in full k-point grid
   CSHIFT  =0.1000    complex shift for real part using Kramers Kronig
   OMEGAMAX=  -1.0    maximum frequency
   DEG_THRESHOLD= 0.2000000E-02 threshold for treating states as degnerate
   RTIME   =   -0.100 relaxation time in fs
  (WPLASMAI=    0.000 imaginary part of plasma frequency in eV, 0.658/RTIME)
   DFIELD  = 0.0000000 0.0000000 0.0000000 field for delta impulse in time

  Optional k-point grid parameters
   LKPOINTS_OPT  =     F    use optional k-point grid
   KPOINTS_OPT_MODE=     1    mode for optional k-point grid

 Orbital magnetization related:
   ORBITALMAG=     F  switch on orbital magnetization
   LCHIMAG   =     F  perturbation theory with respect to B field
   DQ        =  0.001000  dq finite difference perturbation B field
   LLRAUG    =     F  two centre corrections for induced B field



--------------------------------------------------------------------------------------------------------


 Static calculation
 charge density and potential will be updated during run
 non-spin polarized calculation
 Conjugate gradient for all bands (Freysoldt, et al. PRB 79, 241103 (2009))
 preconditioned conjugated gradient                                        
 perform sub-space diagonalisation
    before iterative eigenvector-optimisation
 modified Broyden-mixing scheme, WC =      100.0
 initial mixing is a Kerker type mixing with AMIX =  0.4000 and BMIX =      1.0000
 Hartree-type preconditioning will be used
 using additional bands           96
 reciprocal scheme for non local part
 use partial core corrections
 no Harris-corrections to forces 
 use gradient corrections 
 use of overlap-Matrix (Vanderbilt PP)
 Gauss-broadening in eV      SIGMA  =   0.05


--------------------------------------------------------------------------------------------------------


  energy-cutoff  :      600.00
  volume of cell :     1519.82
      direct lattice vectors                 reciprocal lattice vectors
     8.440984654  0.000000000  0.000000000     0.118469591  0.000000000  0.000000000
     0.000000000  8.440984654  0.000000000     0.000000000  0.118469591  0.000000000
     0.000000000  0.000000000 21.330738491     0.000000000  0.000000000  0.046880702

  length of vectors
     8.440984654  8.440984654 21.330738491     0.118469591  0.118469591  0.046880702



 k-points in units of 2pi/SCALE and weight: pymatgen v2020.8.13 with grid density = 
   0.00000000  0.00000000  0.00000000       0.250
   0.05923480  0.00000000  0.00000000       0.500
   0.05923480  0.05923480  0.00000000       0.250

 k-points in reciprocal lattice and weights: pymatgen v2020.8.13 with grid density = 
   0.00000000  0.00000000  0.00000000       0.250
   0.50000000  0.00000000  0.00000000       0.500
   0.50000000  0.50000000  0.00000000       0.250

 position of ions in fractional coordinates (direct lattice) 
   0.00000000  0.75000000  0.35160527
   0.25000000  0.00000000  0.35160527
   0.00000000  0.00000000  0.45053509
   0.25000000  0.75000000  0.45053509
   0.00000000  0.74993927  0.55008324
   0.25006073  0.00000000  0.55008324
   0.00000000  0.00000000  0.64874531
   0.24985833  0.75014167  0.64856955
   0.00000000  0.25000000  0.35160527
   0.25000000  0.50000000  0.35160527
   0.00000000  0.50000000  0.45053509
   0.25000000  0.25000000  0.45053509
   0.00000000  0.25006073  0.55008324
   0.25037838  0.50000000  0.55021952
   0.00000000  0.50000000  0.64861528
   0.24985833  0.24985833  0.64856955
   0.50000000  0.75000000  0.35160527
   0.75000000  0.00000000  0.35160527
   0.50000000  0.00000000  0.45053509
   0.75000000  0.75000000  0.45053509
   0.50000000  0.74962162  0.55021952
   0.74993927  0.00000000  0.55008324
   0.50000000  0.00000000  0.64861528
   0.75014167  0.75014167  0.64856955
   0.50000000  0.25000000  0.35160527
   0.75000000  0.50000000  0.35160527
   0.50000000  0.50000000  0.45053509
   0.75000000  0.25000000  0.45053509
   0.50000000  0.25037838  0.55021952
   0.74962162  0.50000000  0.55021952
   0.50000000  0.50000000  0.65061696
   0.75014167  0.24985833  0.64856955
   0.00000000  0.75000000  0.45053509
   0.25000000  0.00000000  0.45053509
   0.00000000  0.00000000  0.35160527
   0.25000000  0.75000000  0.35160527
   0.00000000  0.75021853  0.65097926
   0.24978147  0.00000000  0.65097926
   0.00000000  0.00000000  0.54980989
   0.24994577  0.75005423  0.54985911
   0.00000000  0.25000000  0.45053509
   0.25000000  0.50000000  0.45053509
   0.00000000  0.50000000  0.35160527
   0.25000000  0.25000000  0.35160527
   0.00000000  0.24978147  0.65097926
   0.24882271  0.50000000  0.65088287
   0.00000000  0.50000000  0.54976267
   0.24994577  0.24994577  0.54985911
   0.50000000  0.75000000  0.45053509
   0.75000000  0.00000000  0.45053509
   0.50000000  0.00000000  0.35160527
   0.75000000  0.75000000  0.35160527
   0.50000000  0.75117729  0.65088287
   0.75021853  0.00000000  0.65097926
   0.50000000  0.00000000  0.54976267
   0.75005423  0.75005423  0.54985911
   0.50000000  0.25000000  0.45053509
   0.75000000  0.50000000  0.45053509
   0.50000000  0.50000000  0.35160527
   0.75000000  0.25000000  0.35160527
   0.50000000  0.24882271  0.65088287
   0.75117729  0.50000000  0.65088287
   0.50000000  0.50000000  0.55023136
   0.75005423  0.24994577  0.54985911

 position of ions in cartesian coordinates  (Angst):
   0.00000000  6.33073849  7.50000000
   2.11024616  0.00000000  7.50000000
   0.00000000  0.00000000  9.61024616
   2.11024616  6.33073849  9.61024616
   0.00000000  6.33022585 11.73368172
   2.11075880  0.00000000 11.73368172
   0.00000000  0.00000000 13.83821654
   2.10905031  6.33193435 13.83446740
   0.00000000  2.11024616  7.50000000
   2.11024616  4.22049233  7.50000000
   0.00000000  4.22049233  9.61024616
   2.11024616  2.11024616  9.61024616
   0.00000000  2.11075880 11.73368172
   2.11344006  4.22049233 11.73658877
   0.00000000  4.22049233 13.83544293
   2.10905031  2.10905031 13.83446740
   4.22049233  6.33073849  7.50000000
   6.33073849  0.00000000  7.50000000
   4.22049233  0.00000000  9.61024616
   6.33073849  6.33073849  9.61024616
   4.22049233  6.32754460 11.73658877
   6.33022585  0.00000000 11.73368172
   4.22049233  0.00000000 13.83544293
   6.33193435  6.33193435 13.83446740
   4.22049233  2.11024616  7.50000000
   6.33073849  4.22049233  7.50000000
   4.22049233  4.22049233  9.61024616
   6.33073849  2.11024616  9.61024616
   4.22049233  2.11344006 11.73658877
   6.32754460  4.22049233 11.73658877
   4.22049233  4.22049233 13.87814023
   6.33193435  2.10905031 13.83446740
   0.00000000  6.33073849  9.61024616
   2.11024616  0.00000000  9.61024616
   0.00000000  0.00000000  7.50000000
   2.11024616  6.33073849  7.50000000
   0.00000000  6.33258312 13.88586825
   2.10840153  0.00000000 13.88586825
   0.00000000  0.00000000 11.72785099
   2.10978841  6.33119624 11.72890095
   0.00000000  2.11024616  9.61024616
   2.11024616  4.22049233  9.61024616
   0.00000000  4.22049233  7.50000000
   2.11024616  2.11024616  7.50000000
   0.00000000  2.10840153 13.88586825
   2.10030867  4.22049233 13.88381232
   0.00000000  4.22049233 11.72684365
   2.10978841  2.10978841 11.72890095
   4.22049233  6.33073849  9.61024616
   6.33073849  0.00000000  9.61024616
   4.22049233  0.00000000  7.50000000
   6.33073849  6.33073849  7.50000000
   4.22049233  6.34067598 13.88381232
   6.33258312  0.00000000 13.88586825
   4.22049233  0.00000000 11.72684365
   6.33119624  6.33119624 11.72890095
   4.22049233  2.11024616  9.61024616
   6.33073849  4.22049233  9.61024616
   4.22049233  4.22049233  7.50000000
   6.33073849  2.11024616  7.50000000
   4.22049233  2.10030867 13.88381232
   6.34067598  4.22049233 13.88381232
   4.22049233  4.22049233 11.73684118
   6.33119624  2.10978841 11.72890095



--------------------------------------------------------------------------------------------------------


 k-point   1 :   0.0000 0.0000 0.0000  plane waves:   50745
 k-point   2 :   0.5000 0.0000 0.0000  plane waves:   50798
 k-point   3 :   0.5000 0.5000 0.0000  plane waves:   50752

 maximum and minimum number of plane-waves per node :     12720    12632

 maximum number of plane-waves:     50798
 maximum index in each direction: 
   IXMAX=   16   IYMAX=   16   IZMAX=   42
   IXMIN=  -17   IYMIN=  -17   IZMIN=  -42


 parallel 3D FFT for wavefunctions:
    minimum data exchange during FFTs selected (reduces bandwidth)
 parallel 3D FFT for charge:
    minimum data exchange during FFTs selected (reduces bandwidth)


 total amount of memory used by VASP MPI-rank0    69719. kBytes
=======================================================================

   base      :      30000. kBytes
   nonl-proj :      20988. kBytes
   fftplans  :       3857. kBytes
   grid      :       5439. kBytes
   one-center:        129. kBytes
   wavefun   :       9306. kBytes

     INWAV:  cpu time      0.0000: real time      0.0000
 Broyden mixing: mesh for mixing (old mesh)
   NGX = 33   NGY = 33   NGZ = 85
  (NGX  =108   NGY  =108   NGZ  =256)
  gives a total of  92565 points

 initial charge density was supplied:
 charge density of overlapping atoms calculated
 number of electron     448.0000000 magnetization 
 keeping initial charge density in first step


--------------------------------------------------------------------------------------------------------


 Maximum index for augmentation-charges          334 (set IRDMAX)


--------------------------------------------------------------------------------------------------------


 First call to EWALD:  gamma=   0.154
 Maximum number of real-space cells 4x 4x 2
 Maximum number of reciprocal cells 2x 2x 5

    FEWALD:  cpu time      0.0020: real time      0.0020


--------------------------------------- Iteration      1(   1)  ---------------------------------------


    POTLOK:  cpu time      0.0331: real time      0.0336
    SETDIJ:  cpu time      0.1198: real time      0.1199
    TRIAL :  cpu time      4.6078: real time      4.6088
    CORREC:  cpu time      0.0009: real time      0.0010
    --------------------------------------------
      LOOP:  cpu time      4.7660: real time      4.7678

 eigenvalue-minimisations  :  2304
 total energy-change (2. order) : 0.4039345E+04  (-0.3020926E+05)
 number of electron     448.0000000 magnetization 
 augmentation part      448.0000000 magnetization 

 DIPCOR: dipole corrections for dipol
 direction  3 min pos     1,
 dipolmoment           0.000000      0.000000     -0.000006 electrons x Angstroem
 Tr[quadrupol]     -5963.452724

 energy correction for charged system         0.000000 eV
 dipol+quadrupol energy correction           -0.000000 eV
 added-field ion interaction          0.000003 eV  (added to PSCEN)


 Free energy of the ion-electron system (eV)
  ---------------------------------------------------
  alpha Z        PSCENC =       875.25928823
  Ewald energy   TEWEN  =    140467.92172078
  -Hartree energ DENC   =   -175972.37177726
  -exchange      EXHF   =         0.00000000
  -V(xc)+E(xc)   XCENC  =      1727.21912908
  PAW double counting   =     31885.32831381   -35670.53061943
  entropy T*S    EENTRO =        -0.02124013
  eigenvalues    EBANDS =     -6890.90130874
  atomic energy  EATOM  =     47617.44106709
  ---------------------------------------------------
  free energy    TOTEN  =      4039.34457343 eV

  energy without entropy =     4039.36581356  energy(sigma->0) =     4039.35519350


--------------------------------------------------------------------------------------------------------




--------------------------------------- Iteration      1(   2)  ---------------------------------------


    TRIAL :  cpu time      1.6897: real time      1.6899
    CORREC:  cpu time      0.0003: real time      0.0003
    --------------------------------------------
      LOOP:  cpu time      1.6939: real time      1.7026

 eigenvalue-minimisations  :  2304
 total energy-change (2. order) :-0.4151147E+04  (-0.4080047E+04)
 number of electron     448.0000000 magnetization 
 augmentation part      448.0000000 magnetization 

 DIPCOR: dipole corrections for dipol
 direction  3 min pos     1,
 dipolmoment           0.000000      0.000000     -0.000006 electrons x Angstroem
 Tr[quadrupol]     -5963.452724

 energy correction for charged system         0.000000 eV
 dipol+quadrupol energy correction           -0.000000 eV
 added-field ion interaction          0.000003 eV  (added to PSCEN)


 Free energy of the ion-electron system (eV)
  ---------------------------------------------------
  alpha Z        PSCENC =       875.25928823
  Ewald energy   TEWEN  =    140467.92172078
  -Hartree energ DENC   =   -175972.37177726
  -exchange      EXHF   =         0.00000000
  -V(xc)+E(xc)   XCENC  =      1727.21912908
  PAW double counting   =     31885.32831381   -35670.53061943
  entropy T*S    EENTRO =        -0.00000000
  eigenvalues    EBANDS =    -11042.06918637
  atomic energy  EATOM  =     47617.44106709
  ---------------------------------------------------
  free energy    TOTEN  =      -111.80206407 eV

  energy without entropy =     -111.80206407  energy(sigma->0) =     -111.80206407


--------------------------------------------------------------------------------------------------------




--------------------------------------- Iteration      1(   3)  ---------------------------------------


    TRIAL :  cpu time      1.7556: real time      1.7557
    CORREC:  cpu time      0.0003: real time      0.0003
    --------------------------------------------
      LOOP:  cpu time      1.7615: real time      1.7686

 eigenvalue-minimisations  :  2304
 total energy-change (2. order) :-0.2993630E+03  (-0.2973625E+03)
 number of electron     448.0000000 magnetization 
 augmentation part      448.0000000 magnetization 

 DIPCOR: dipole corrections for dipol
 direction  3 min pos     1,
 dipolmoment           0.000000      0.000000     -0.000006 electrons x Angstroem
 Tr[quadrupol]     -5963.452724

 energy correction for charged system         0.000000 eV
 dipol+quadrupol energy correction           -0.000000 eV
 added-field ion interaction          0.000003 eV  (added to PSCEN)


 Free energy of the ion-electron system (eV)
  ---------------------------------------------------
  alpha Z        PSCENC =       875.25928823
  Ewald energy   TEWEN  =    140467.92172078
  -Hartree energ DENC   =   -175972.37177726
  -exchange      EXHF   =         0.00000000
  -V(xc)+E(xc)   XCENC  =      1727.21912908
  PAW double counting   =     31885.32831381   -35670.53061943
  entropy T*S    EENTRO =        -0.00000000
  eigenvalues    EBANDS =    -11341.43218221
  atomic energy  EATOM  =     47617.44106709
  ---------------------------------------------------
  free energy    TOTEN  =      -411.16505991 eV

  energy without entropy =     -411.16505991  energy(sigma->0) =     -411.16505991


--------------------------------------------------------------------------------------------------------




--------------------------------------- Iteration      1(   4)  ---------------------------------------


    TRIAL :  cpu time      1.7605: real time      1.7606
    CORREC:  cpu time      0.0003: real time      0.0003
    --------------------------------------------
      LOOP:  cpu time      1.7729: real time      1.7732

 eigenvalue-minimisations  :  2304
 total energy-change (2. order) :-0.5570797E+01  (-0.5565023E+01)
 number of electron     448.0000000 magnetization 
 augmentation part      448.0000000 magnetization 

 DIPCOR: dipole corrections for dipol
 direction  3 min pos     1,
 dipolmoment           0.000000      0.000000     -0.000006 electrons x Angstroem
 Tr[quadrupol]     -5963.452724

 energy correction for charged system         0.000000 eV
 dipol+quadrupol energy correction           -0.000000 eV
 added-field ion interaction          0.000003 eV  (added to PSCEN)


 Free energy of the ion-electron system (eV)
  ---------------------------------------------------
  alpha Z        PSCENC =       875.25928823
  Ewald energy   TEWEN  =    140467.92172078
  -Hartree energ DENC   =   -175972.37177726
  -exchange      EXHF   =         0.00000000
  -V(xc)+E(xc)   XCENC  =      1727.21912908
  PAW double counting   =     31885.32831381   -35670.53061943
  entropy T*S    EENTRO =        -0.00000000
  eigenvalues    EBANDS =    -11347.00297918
  atomic energy  EATOM  =     47617.44106709
  ---------------------------------------------------
  free energy    TOTEN  =      -416.73585689 eV

  energy without entropy =     -416.73585689  energy(sigma->0) =     -416.73585689


--------------------------------------------------------------------------------------------------------




--------------------------------------- Iteration      1(   5)  ---------------------------------------


    TRIAL :  cpu time      1.9349: real time      1.9350
    CORREC:  cpu time      0.0005: real time      0.0005
    CHARGE:  cpu time      0.0557: real time      0.0559
    --------------------------------------------
      LOOP:  cpu time      1.9958: real time      2.0034

 eigenvalue-minimisations  :  2496
 total energy-change (2. order) :-0.7761672E-01  (-0.7761359E-01)
 number of electron     447.9999358 magnetization 
 augmentation part      158.9806580 magnetization 

 DIPCOR: dipole corrections for dipol
 direction  3 min pos     1,
 dipolmoment           0.000000      0.000000     -0.000006 electrons x Angstroem
 Tr[quadrupol]     -5963.452724

 energy correction for charged system         0.000000 eV
 dipol+quadrupol energy correction           -0.000000 eV
 added-field ion interaction          0.000003 eV  (added to PSCEN)


 Free energy of the ion-electron system (eV)
  ---------------------------------------------------
  alpha Z        PSCENC =       875.25928823
  Ewald energy   TEWEN  =    140467.92172078
  -Hartree energ DENC   =   -175972.37177726
  -exchange      EXHF   =         0.00000000
  -V(xc)+E(xc)   XCENC  =      1727.21912908
  PAW double counting   =     31885.32831381   -35670.53061943
  entropy T*S    EENTRO =        -0.00000000
  eigenvalues    EBANDS =    -11347.08059590
  atomic energy  EATOM  =     47617.44106709
  ---------------------------------------------------
  free energy    TOTEN  =      -416.81347361 eV

  energy without entropy =     -416.81347361  energy(sigma->0) =     -416.81347361


--------------------------------------------------------------------------------------------------------




--------------------------------------- Iteration      1(   6)  ---------------------------------------


    POTLOK:  cpu time      0.0265: real time      0.0265
    SETDIJ:  cpu time      0.1141: real time      0.1141
    TRIAL :  cpu time      0.5557: real time      0.5564
    CORREC:  cpu time      0.3880: real time      0.3883
    CHARGE:  cpu time      0.0413: real time      0.0413
    --------------------------------------------
      LOOP:  cpu time      1.1378: real time      1.1391

 eigenvalue-minimisations  :     0
 total energy-change (2. order) : 0.1709239E+03  (-0.9438303E+02)
 number of electron     447.9999253 magnetization 
 augmentation part      156.1517637 magnetization 

 DIPCOR: dipole corrections for dipol
 direction  3 min pos     1,
 dipolmoment           0.000000      0.000000      0.322904 electrons x Angstroem
 Tr[quadrupol]     -6000.820850

 energy correction for charged system         0.000000 eV
 dipol+quadrupol energy correction           -0.006207 eV
 added-field ion interaction         -0.176389 eV  (added to PSCEN)


 Free energy of the ion-electron system (eV)
  ---------------------------------------------------
  alpha Z        PSCENC =       874.95890384
  Ewald energy   TEWEN  =    140467.92172078
  -Hartree energ DENC   =   -179828.75682947
  -exchange      EXHF   =         0.00000000
  -V(xc)+E(xc)   XCENC  =      1848.96862451
  PAW double counting   =     36283.70673280   -40027.62449614
  entropy T*S    EENTRO =        -0.00000000
  eigenvalues    EBANDS =     -7482.50531375
  atomic energy  EATOM  =     47617.44106709
  ---------------------------------------------------
  free energy    TOTEN  =      -245.88959034 eV

  energy without entropy =     -245.88959034  energy(sigma->0) =     -245.88959034


--------------------------------------------------------------------------------------------------------




--------------------------------------- Iteration      1(   7)  ---------------------------------------


    POTLOK:  cpu time      0.0224: real time      0.0224
    SETDIJ:  cpu time      0.1150: real time      0.1150
    TRIAL :  cpu time      0.5032: real time      0.5032
    CORREC:  cpu time      0.3786: real time      0.3786
    CHARGE:  cpu time      0.0413: real time      0.0413
    --------------------------------------------
      LOOP:  cpu time      1.0728: real time      1.0733

 eigenvalue-minimisations  :     0
 total energy-change (2. order) :-0.9466146E+02  (-0.6903833E+01)
 number of electron     447.9999244 magnetization 
 augmentation part      154.2273457 magnetization 

 DIPCOR: dipole corrections for dipol
 direction  3 min pos     1,
 dipolmoment           0.000000      0.000000      0.233077 electrons x Angstroem
 Tr[quadrupol]     -6005.478772

 energy correction for charged system         0.000000 eV
 dipol+quadrupol energy correction           -0.003234 eV
 added-field ion interaction         -0.127320 eV  (added to PSCEN)


 Free energy of the ion-electron system (eV)
  ---------------------------------------------------
  alpha Z        PSCENC =       875.06625570
  Ewald energy   TEWEN  =    140467.92172078
  -Hartree energ DENC   =   -178002.99067744
  -exchange      EXHF   =         0.00000000
  -V(xc)+E(xc)   XCENC  =      1783.66130988
  PAW double counting   =     35222.77098746   -39036.10373170
  entropy T*S    EENTRO =        -0.00000000
  eigenvalues    EBANDS =     -9268.31798339
  atomic energy  EATOM  =     47617.44106709
  ---------------------------------------------------
  free energy    TOTEN  =      -340.55105162 eV

  energy without entropy =     -340.55105162  energy(sigma->0) =     -340.55105162


--------------------------------------------------------------------------------------------------------




--------------------------------------- Iteration      1(   8)  ---------------------------------------


    POTLOK:  cpu time      0.0219: real time      0.0219
    SETDIJ:  cpu time      0.1154: real time      0.1154
    TRIAL :  cpu time      0.5046: real time      0.5047
    CORREC:  cpu time      0.3811: real time      0.3811
    CHARGE:  cpu time      0.0412: real time      0.0412
    --------------------------------------------
      LOOP:  cpu time      1.0766: real time      1.0770

 eigenvalue-minimisations  :     0
 total energy-change (2. order) :-0.6917979E+01  (-0.4239079E+01)
 number of electron     447.9999226 magnetization 
 augmentation part      154.3419241 magnetization 

 DIPCOR: dipole corrections for dipol
 direction  3 min pos     1,
 dipolmoment           0.000000      0.000000      0.147303 electrons x Angstroem
 Tr[quadrupol]     -6003.568678

 energy correction for charged system         0.000000 eV
 dipol+quadrupol energy correction           -0.001292 eV
 added-field ion interaction         -0.080466 eV  (added to PSCEN)


 Free energy of the ion-electron system (eV)
  ---------------------------------------------------
  alpha Z        PSCENC =       875.14920384
  Ewald energy   TEWEN  =    140467.92172078
  -Hartree energ DENC   =   -177911.39480114
  -exchange      EXHF   =         0.00000000
  -V(xc)+E(xc)   XCENC  =      1773.67923586
  PAW double counting   =     35085.20544614   -38826.96760775
  entropy T*S    EENTRO =        -0.00000000
  eigenvalues    EBANDS =     -9428.50329591
  atomic energy  EATOM  =     47617.44106709
  ---------------------------------------------------
  free energy    TOTEN  =      -347.46903109 eV

  energy without entropy =     -347.46903109  energy(sigma->0) =     -347.46903109


--------------------------------------------------------------------------------------------------------




--------------------------------------- Iteration      1(   9)  ---------------------------------------


    POTLOK:  cpu time      0.0222: real time      0.0222
    SETDIJ:  cpu time      0.1148: real time      0.1148
    TRIAL :  cpu time      0.5041: real time      0.5042
    CORREC:  cpu time      0.3792: real time      0.3792
    CHARGE:  cpu time      0.0407: real time      0.0407
    --------------------------------------------
      LOOP:  cpu time      1.0645: real time      1.0736

 eigenvalue-minimisations  :     0
 total energy-change (2. order) :-0.4155003E+01  (-0.1730609E+01)
 number of electron     447.9999226 magnetization 
 augmentation part      154.4042405 magnetization 

 DIPCOR: dipole corrections for dipol
 direction  3 min pos     1,
 dipolmoment           0.000000      0.000000      0.109357 electrons x Angstroem
 Tr[quadrupol]     -5996.671183

 energy correction for charged system         0.000000 eV
 dipol+quadrupol energy correction           -0.000712 eV
 added-field ion interaction         -0.059737 eV  (added to PSCEN)


 Free energy of the ion-electron system (eV)
  ---------------------------------------------------
  alpha Z        PSCENC =       875.19145455
  Ewald energy   TEWEN  =    140467.92172078
  -Hartree energ DENC   =   -177774.90254914
  -exchange      EXHF   =         0.00000000
  -V(xc)+E(xc)   XCENC  =      1773.01767802
  PAW double counting   =     34976.93398444   -38754.92718641
  entropy T*S    EENTRO =        -0.00000000
  eigenvalues    EBANDS =     -9532.30020325
  atomic energy  EATOM  =     47617.44106709
  ---------------------------------------------------
  free energy    TOTEN  =      -351.62403392 eV

  energy without entropy =     -351.62403392  energy(sigma->0) =     -351.62403392


--------------------------------------------------------------------------------------------------------




--------------------------------------- Iteration      1(  10)  ---------------------------------------


    POTLOK:  cpu time      0.0218: real time      0.0218
    SETDIJ:  cpu time      0.1154: real time      0.1154
    TRIAL :  cpu time      0.5035: real time      0.5035
    CORREC:  cpu time      0.3796: real time      0.3796
    CHARGE:  cpu time      0.0412: real time      0.0413
    --------------------------------------------
      LOOP:  cpu time      1.0657: real time      1.0736

 eigenvalue-minimisations  :     0
 total energy-change (2. order) :-0.1746440E+01  (-0.6045454E+00)
 number of electron     447.9999232 magnetization 
 augmentation part      154.3681483 magnetization 

 DIPCOR: dipole corrections for dipol
 direction  3 min pos     1,
 dipolmoment           0.000000      0.000000      0.129797 electrons x Angstroem
 Tr[quadrupol]     -5995.857486

 energy correction for charged system         0.000000 eV
 dipol+quadrupol energy correction           -0.001003 eV
 added-field ion interaction         -0.070903 eV  (added to PSCEN)


 Free energy of the ion-electron system (eV)
  ---------------------------------------------------
  alpha Z        PSCENC =       875.19702537
  Ewald energy   TEWEN  =    140467.92172078
  -Hartree energ DENC   =   -177601.07915206
  -exchange      EXHF   =         0.00000000
  -V(xc)+E(xc)   XCENC  =      1771.50100335
  PAW double counting   =     34859.20593513   -38647.73217286
  entropy T*S    EENTRO =        -0.00000000
  eigenvalues    EBANDS =     -9695.82590102
  atomic energy  EATOM  =     47617.44106709
  ---------------------------------------------------
  free energy    TOTEN  =      -353.37047423 eV

  energy without entropy =     -353.37047423  energy(sigma->0) =     -353.37047423


--------------------------------------------------------------------------------------------------------




--------------------------------------- Iteration      1(  11)  ---------------------------------------


    POTLOK:  cpu time      0.0219: real time      0.0219
    SETDIJ:  cpu time      0.1155: real time      0.1155
    TRIAL :  cpu time      0.5038: real time      0.5039
    CORREC:  cpu time      0.3784: real time      0.3787
    CHARGE:  cpu time      0.0414: real time      0.0415
    --------------------------------------------
      LOOP:  cpu time      1.0662: real time      1.0737

 eigenvalue-minimisations  :     0
 total energy-change (2. order) :-0.6054232E+00  (-0.2081364E+00)
 number of electron     447.9999236 magnetization 
 augmentation part      154.4520964 magnetization 

 DIPCOR: dipole corrections for dipol
 direction  3 min pos     1,
 dipolmoment           0.000000      0.000000      0.141991 electrons x Angstroem
 Tr[quadrupol]     -5996.467763

 energy correction for charged system         0.000000 eV
 dipol+quadrupol energy correction           -0.001200 eV
 added-field ion interaction         -0.077564 eV  (added to PSCEN)


 Free energy of the ion-electron system (eV)
  ---------------------------------------------------
  alpha Z        PSCENC =       875.18828932
  Ewald energy   TEWEN  =    140467.92172078
  -Hartree energ DENC   =   -177535.87895303
  -exchange      EXHF   =         0.00000000
  -V(xc)+E(xc)   XCENC  =      1770.47706469
  PAW double counting   =     34796.49886566   -38576.74810836
  entropy T*S    EENTRO =        -0.00000000
  eigenvalues    EBANDS =     -9768.87584357
  atomic energy  EATOM  =     47617.44106709
  ---------------------------------------------------
  free energy    TOTEN  =      -353.97589742 eV

  energy without entropy =     -353.97589742  energy(sigma->0) =     -353.97589742


--------------------------------------------------------------------------------------------------------




--------------------------------------- Iteration      1(  12)  ---------------------------------------


    POTLOK:  cpu time      0.0218: real time      0.0218
    SETDIJ:  cpu time      0.1158: real time      0.1158
    TRIAL :  cpu time      0.5050: real time      0.5050
    CORREC:  cpu time      0.3786: real time      0.3786
    CHARGE:  cpu time      0.0408: real time      0.0409
    --------------------------------------------
      LOOP:  cpu time      1.0671: real time      1.0747

 eigenvalue-minimisations  :     0
 total energy-change (2. order) :-0.2081034E+00  (-0.7102004E-01)
 number of electron     447.9999237 magnetization 
 augmentation part      154.5511826 magnetization 

 DIPCOR: dipole corrections for dipol
 direction  3 min pos     1,
 dipolmoment           0.000000      0.000000      0.147334 electrons x Angstroem
 Tr[quadrupol]     -5997.047057

 energy correction for charged system         0.000000 eV
 dipol+quadrupol energy correction           -0.001292 eV
 added-field ion interaction         -0.080482 eV  (added to PSCEN)


 Free energy of the ion-electron system (eV)
  ---------------------------------------------------
  alpha Z        PSCENC =       875.18083296
  Ewald energy   TEWEN  =    140467.92172078
  -Hartree energ DENC   =   -177554.23058523
  -exchange      EXHF   =         0.00000000
  -V(xc)+E(xc)   XCENC  =      1770.67977858
  PAW double counting   =     34782.89687786   -38561.06123008
  entropy T*S    EENTRO =        -0.00000000
  eigenvalues    EBANDS =     -9753.01246279
  atomic energy  EATOM  =     47617.44106709
  ---------------------------------------------------
  free energy    TOTEN  =      -354.18400083 eV

  energy without entropy =     -354.18400083  energy(sigma->0) =     -354.18400083


--------------------------------------------------------------------------------------------------------




--------------------------------------- Iteration      1(  13)  ---------------------------------------


    POTLOK:  cpu time      0.0217: real time      0.0217
    SETDIJ:  cpu time      0.1152: real time      0.1152
    TRIAL :  cpu time      0.5037: real time      0.5038
    CORREC:  cpu time      0.3799: real time      0.3799
    CHARGE:  cpu time      0.0416: real time      0.0416
    --------------------------------------------
      LOOP:  cpu time      1.0665: real time      1.0747

 eigenvalue-minimisations  :     0
 total energy-change (2. order) :-0.7104778E-01  (-0.3017120E-01)
 number of electron     447.9999237 magnetization 
 augmentation part      154.5839543 magnetization 

 DIPCOR: dipole corrections for dipol
 direction  3 min pos     1,
 dipolmoment           0.000000      0.000000      0.150948 electrons x Angstroem
 Tr[quadrupol]     -5997.400294

 energy correction for charged system         0.000000 eV
 dipol+quadrupol energy correction           -0.001356 eV
 added-field ion interaction         -0.082457 eV  (added to PSCEN)


 Free energy of the ion-electron system (eV)
  ---------------------------------------------------
  alpha Z        PSCENC =       875.17731185
  Ewald energy   TEWEN  =    140467.92172078
  -Hartree energ DENC   =   -177580.99500198
  -exchange      EXHF   =         0.00000000
  -V(xc)+E(xc)   XCENC  =      1770.99634801
  PAW double counting   =     34783.22004100   -38564.24748862
  entropy T*S    EENTRO =        -0.00000000
  eigenvalues    EBANDS =     -9723.76904675
  atomic energy  EATOM  =     47617.44106709
  ---------------------------------------------------
  free energy    TOTEN  =      -354.25504862 eV

  energy without entropy =     -354.25504862  energy(sigma->0) =     -354.25504862


--------------------------------------------------------------------------------------------------------




--------------------------------------- Iteration      1(  14)  ---------------------------------------


    POTLOK:  cpu time      0.0218: real time      0.0218
    SETDIJ:  cpu time      0.1154: real time      0.1154
    TRIAL :  cpu time      0.5032: real time      0.5032
    CORREC:  cpu time      0.3799: real time      0.3800
    CHARGE:  cpu time      0.0441: real time      0.0441
    --------------------------------------------
      LOOP:  cpu time      1.0694: real time      1.0768

 eigenvalue-minimisations  :     0
 total energy-change (2. order) :-0.3019567E-01  (-0.1471610E-01)
 number of electron     447.9999237 magnetization 
 augmentation part      154.5708868 magnetization 

 DIPCOR: dipole corrections for dipol
 direction  3 min pos     1,
 dipolmoment           0.000000      0.000000      0.155053 electrons x Angstroem
 Tr[quadrupol]     -5997.680915

 energy correction for charged system         0.000000 eV
 dipol+quadrupol energy correction           -0.001431 eV
 added-field ion interaction         -0.084699 eV  (added to PSCEN)


 Free energy of the ion-electron system (eV)
  ---------------------------------------------------
  alpha Z        PSCENC =       875.17514541
  Ewald energy   TEWEN  =    140467.92172078
  -Hartree energ DENC   =   -177593.62339987
  -exchange      EXHF   =         0.00000000
  -V(xc)+E(xc)   XCENC  =      1771.03167392
  PAW double counting   =     34784.54450469   -38567.07531198
  entropy T*S    EENTRO =        -0.00000000
  eigenvalues    EBANDS =     -9709.70064432
  atomic energy  EATOM  =     47617.44106709
  ---------------------------------------------------
  free energy    TOTEN  =      -354.28524429 eV

  energy without entropy =     -354.28524429  energy(sigma->0) =     -354.28524429


--------------------------------------------------------------------------------------------------------




--------------------------------------- Iteration      1(  15)  ---------------------------------------


    POTLOK:  cpu time      0.0215: real time      0.0215
    SETDIJ:  cpu time      0.1154: real time      0.1154
    TRIAL :  cpu time      0.5030: real time      0.5031
    CORREC:  cpu time      0.3808: real time      0.3808
    CHARGE:  cpu time      0.0422: real time      0.0423
    --------------------------------------------
      LOOP:  cpu time      1.0765: real time      1.0769

 eigenvalue-minimisations  :     0
 total energy-change (2. order) :-0.1472450E-01  (-0.6373386E-02)
 number of electron     447.9999237 magnetization 
 augmentation part      154.5589679 magnetization 

 DIPCOR: dipole corrections for dipol
 direction  3 min pos     1,
 dipolmoment           0.000000      0.000000      0.158781 electrons x Angstroem
 Tr[quadrupol]     -5997.925462

 energy correction for charged system         0.000000 eV
 dipol+quadrupol energy correction           -0.001501 eV
 added-field ion interaction         -0.086735 eV  (added to PSCEN)


 Free energy of the ion-electron system (eV)
  ---------------------------------------------------
  alpha Z        PSCENC =       875.17263679
  Ewald energy   TEWEN  =    140467.92172078
  -Hartree energ DENC   =   -177602.45806354
  -exchange      EXHF   =         0.00000000
  -V(xc)+E(xc)   XCENC  =      1771.05893656
  PAW double counting   =     34789.39628808   -38571.23425686
  entropy T*S    EENTRO =        -0.00000000
  eigenvalues    EBANDS =     -9701.59829769
  atomic energy  EATOM  =     47617.44106709
  ---------------------------------------------------
  free energy    TOTEN  =      -354.29996878 eV

  energy without entropy =     -354.29996878  energy(sigma->0) =     -354.29996878


--------------------------------------------------------------------------------------------------------




--------------------------------------- Iteration      1(  16)  ---------------------------------------


    POTLOK:  cpu time      0.0217: real time      0.0217
    SETDIJ:  cpu time      0.1153: real time      0.1153
    TRIAL :  cpu time      0.5024: real time      0.5025
    CORREC:  cpu time      0.3785: real time      0.3785
    CHARGE:  cpu time      0.0413: real time      0.0413
    --------------------------------------------
      LOOP:  cpu time      1.0631: real time      1.0719

 eigenvalue-minimisations  :     0
 total energy-change (2. order) :-0.6377215E-02  (-0.2365278E-02)
 number of electron     447.9999237 magnetization 
 augmentation part      154.5565189 magnetization 

 DIPCOR: dipole corrections for dipol
 direction  3 min pos     1,
 dipolmoment           0.000000      0.000000      0.160224 electrons x Angstroem
 Tr[quadrupol]     -5998.056020

 energy correction for charged system         0.000000 eV
 dipol+quadrupol energy correction           -0.001528 eV
 added-field ion interaction         -0.087524 eV  (added to PSCEN)


 Free energy of the ion-electron system (eV)
  ---------------------------------------------------
  alpha Z        PSCENC =       875.17063738
  Ewald energy   TEWEN  =    140467.92172078
  -Hartree energ DENC   =   -177611.79406669
  -exchange      EXHF   =         0.00000000
  -V(xc)+E(xc)   XCENC  =      1771.19105897
  PAW double counting   =     34796.40456735   -38577.55025634
  entropy T*S    EENTRO =        -0.00000000
  eigenvalues    EBANDS =     -9693.09107455
  atomic energy  EATOM  =     47617.44106709
  ---------------------------------------------------
  free energy    TOTEN  =      -354.30634600 eV

  energy without entropy =     -354.30634600  energy(sigma->0) =     -354.30634600


--------------------------------------------------------------------------------------------------------




--------------------------------------- Iteration      1(  17)  ---------------------------------------


    POTLOK:  cpu time      0.0216: real time      0.0216
    SETDIJ:  cpu time      0.1159: real time      0.1159
    TRIAL :  cpu time      0.5034: real time      0.5035
    CORREC:  cpu time      0.3800: real time      0.3801
    CHARGE:  cpu time      0.0417: real time      0.0417
    --------------------------------------------
      LOOP:  cpu time      1.0748: real time      1.0752

 eigenvalue-minimisations  :     0
 total energy-change (2. order) :-0.2363384E-02  (-0.8626847E-03)
 number of electron     447.9999236 magnetization 
 augmentation part      154.5561349 magnetization 

 DIPCOR: dipole corrections for dipol
 direction  3 min pos     1,
 dipolmoment           0.000000      0.000000      0.159701 electrons x Angstroem
 Tr[quadrupol]     -5998.068829

 energy correction for charged system         0.000000 eV
 dipol+quadrupol energy correction           -0.001518 eV
 added-field ion interaction         -0.087238 eV  (added to PSCEN)


 Free energy of the ion-electron system (eV)
  ---------------------------------------------------
  alpha Z        PSCENC =       875.17015042
  Ewald energy   TEWEN  =    140467.92172078
  -Hartree energ DENC   =   -177615.99921893
  -exchange      EXHF   =         0.00000000
  -V(xc)+E(xc)   XCENC  =      1771.25316020
  PAW double counting   =     34800.47393364   -38581.69924209
  entropy T*S    EENTRO =        -0.00000000
  eigenvalues    EBANDS =     -9688.87028049
  atomic energy  EATOM  =     47617.44106709
  ---------------------------------------------------
  free energy    TOTEN  =      -354.30870938 eV

  energy without entropy =     -354.30870938  energy(sigma->0) =     -354.30870938


--------------------------------------------------------------------------------------------------------




--------------------------------------- Iteration      1(  18)  ---------------------------------------


    POTLOK:  cpu time      0.0217: real time      0.0217
    SETDIJ:  cpu time      0.1157: real time      0.1157
    TRIAL :  cpu time      0.5035: real time      0.5036
    CORREC:  cpu time      0.3802: real time      0.3802
    CHARGE:  cpu time      0.0414: real time      0.0414
    --------------------------------------------
      LOOP:  cpu time      1.0666: real time      1.0752

 eigenvalue-minimisations  :     0
 total energy-change (2. order) :-0.8602393E-03  (-0.3244038E-03)
 number of electron     447.9999236 magnetization 
 augmentation part      154.5564171 magnetization 

 DIPCOR: dipole corrections for dipol
 direction  3 min pos     1,
 dipolmoment           0.000000      0.000000      0.158636 electrons x Angstroem
 Tr[quadrupol]     -5998.042302

 energy correction for charged system         0.000000 eV
 dipol+quadrupol energy correction           -0.001498 eV
 added-field ion interaction         -0.086656 eV  (added to PSCEN)


 Free energy of the ion-electron system (eV)
  ---------------------------------------------------
  alpha Z        PSCENC =       875.17063883
  Ewald energy   TEWEN  =    140467.92172078
  -Hartree energ DENC   =   -177615.77401787
  -exchange      EXHF   =         0.00000000
  -V(xc)+E(xc)   XCENC  =      1771.24712998
  PAW double counting   =     34802.24188973   -38583.63619127
  entropy T*S    EENTRO =        -0.00000000
  eigenvalues    EBANDS =     -9688.92180689
  atomic energy  EATOM  =     47617.44106709
  ---------------------------------------------------
  free energy    TOTEN  =      -354.30956962 eV

  energy without entropy =     -354.30956962  energy(sigma->0) =     -354.30956962


--------------------------------------------------------------------------------------------------------




--------------------------------------- Iteration      1(  19)  ---------------------------------------


    POTLOK:  cpu time      0.0215: real time      0.0215
    SETDIJ:  cpu time      0.1153: real time      0.1153
    TRIAL :  cpu time      0.5029: real time      0.5029
    CORREC:  cpu time      0.3807: real time      0.3807
    CHARGE:  cpu time      0.0420: real time      0.0420
    --------------------------------------------
      LOOP:  cpu time      1.0748: real time      1.0751

 eigenvalue-minimisations  :     0
 total energy-change (2. order) :-0.3237282E-03  (-0.1337815E-03)
 number of electron     447.9999236 magnetization 
 augmentation part      154.5565322 magnetization 

 DIPCOR: dipole corrections for dipol
 direction  3 min pos     1,
 dipolmoment           0.000000      0.000000      0.157787 electrons x Angstroem
 Tr[quadrupol]     -5998.010998

 energy correction for charged system         0.000000 eV
 dipol+quadrupol energy correction           -0.001482 eV
 added-field ion interaction         -0.086193 eV  (added to PSCEN)


 Free energy of the ion-electron system (eV)
  ---------------------------------------------------
  alpha Z        PSCENC =       875.17129352
  Ewald energy   TEWEN  =    140467.92172078
  -Hartree energ DENC   =   -177614.63202598
  -exchange      EXHF   =         0.00000000
  -V(xc)+E(xc)   XCENC  =      1771.24915667
  PAW double counting   =     34803.20111558   -38584.56289149
  entropy T*S    EENTRO =        -0.00000000
  eigenvalues    EBANDS =     -9690.09932952
  atomic energy  EATOM  =     47617.44106709
  ---------------------------------------------------
  free energy    TOTEN  =      -354.30989335 eV

  energy without entropy =     -354.30989335  energy(sigma->0) =     -354.30989335


--------------------------------------------------------------------------------------------------------




--------------------------------------- Iteration      1(  20)  ---------------------------------------


    POTLOK:  cpu time      0.0217: real time      0.0217
    SETDIJ:  cpu time      0.1157: real time      0.1157
    TRIAL :  cpu time      0.5025: real time      0.5025
    CORREC:  cpu time      0.3786: real time      0.3786
    CHARGE:  cpu time      0.0418: real time      0.0418
    --------------------------------------------
      LOOP:  cpu time      1.0656: real time      1.0729

 eigenvalue-minimisations  :     0
 total energy-change (2. order) :-0.1336021E-03  (-0.5137693E-04)
 number of electron     447.9999236 magnetization 
 augmentation part      154.5561627 magnetization 

 DIPCOR: dipole corrections for dipol
 direction  3 min pos     1,
 dipolmoment           0.000000      0.000000      0.157411 electrons x Angstroem
 Tr[quadrupol]     -5997.987416

[...]
    296       8.9398      0.00000
    297       9.0373      0.00000
    298       9.1136      0.00000
    299       9.1860      0.00000
    300       9.2562      0.00000
    301       9.3180      0.00000
    302       9.3479      0.00000
    303       9.3889      0.00000
    304       9.4333      0.00000
    305       9.8628      0.00000
    306       9.8709      0.00000
    307       9.8833      0.00000
    308       9.8872      0.00000
    309       9.8943      0.00000
    310       9.9008      0.00000
    311       9.9062      0.00000
    312       9.9139      0.00000
    313       9.9371      0.00000
    314      10.0213      0.00000
    315      10.1259      0.00000
    316      10.3540      0.00000
    317      10.4624      0.00000
    318      10.4786      0.00000
    319      10.4790      0.00000
    320      10.4793      0.00000


--------------------------------------------------------------------------------------------------------


 soft charge-density along one line, spin component           1
         0         1         2         3         4         5         6         7         8         9
 total charge-density along one line

 pseudopotential strength for first ion, spin component:           1
-51.673  -0.000  -0.000   7.194   0.000   0.000  -0.000   0.000
 -0.000 -51.729  -0.000   0.000   7.225   0.000  -0.034   0.084
 -0.000  -0.000 -51.673   0.000   0.000   7.194   0.000  -0.000
  7.194   0.000   0.000   4.272   0.000  -0.000  -0.000   0.000
  0.000   7.225   0.000   0.000   4.287  -0.000  -0.007   0.014
  0.000   0.000   7.194  -0.000  -0.000   4.272   0.000  -0.000
 -0.000  -0.034   0.000  -0.000  -0.007   0.000   2.997 -11.088
  0.000   0.084  -0.000   0.000   0.014  -0.000 -11.088  46.323
 -0.000  -0.000   0.000   0.000   0.000  -0.000   0.000  -0.000
  0.009   0.000  -0.000  -0.011  -0.000   0.000   0.000  -0.000
 -0.000   0.008   0.000   0.000  -0.025  -0.000   0.013  -0.025
 -0.000  -0.000   0.009   0.000   0.000  -0.011   0.000  -0.000
 -0.000  -0.000  -0.000   0.000   0.000   0.000   0.000  -0.000
 total augmentation occupancy for first ion, spin component:           1
  2.001   0.000   0.000  -0.008   0.000   0.000   0.000   0.000   0.000  -0.008   0.000   0.000   0.000
  0.000   2.002  -0.000   0.000  -0.002   0.000   0.001   0.005  -0.000  -0.000  -0.014   0.000   0.000
  0.000  -0.000   2.001   0.000   0.000  -0.008  -0.000   0.000  -0.000   0.000   0.000  -0.008   0.000
 -0.008   0.000   0.000   0.076  -0.000   0.000   0.000  -0.000   0.000   0.001  -0.000   0.000  -0.000
  0.000  -0.002   0.000  -0.000   0.047   0.000   0.040   0.001   0.000   0.000   0.026   0.000   0.000
  0.000   0.000  -0.008   0.000   0.000   0.076   0.000  -0.000  -0.000   0.000   0.000   0.001  -0.000
  0.000   0.001  -0.000   0.000   0.040   0.000   0.816   0.014   0.000  -0.000  -0.040   0.000  -0.000
  0.000   0.005   0.000  -0.000   0.001  -0.000   0.014   0.000   0.000  -0.000  -0.001   0.000   0.000
  0.000  -0.000  -0.000   0.000   0.000  -0.000   0.000   0.000   0.013   0.000   0.000  -0.000  -0.000
 -0.008  -0.000   0.000   0.001   0.000   0.000  -0.000  -0.000   0.000   0.011  -0.000   0.000   0.000
  0.000  -0.014   0.000  -0.000   0.026   0.000  -0.040  -0.001   0.000  -0.000   0.031  -0.000   0.000
  0.000   0.000  -0.008   0.000   0.000   0.001   0.000   0.000  -0.000   0.000  -0.000   0.011   0.000
  0.000   0.000   0.000  -0.000   0.000  -0.000  -0.000   0.000  -0.000   0.000   0.000   0.000   0.052


------------------------ aborting loop because EDIFF is reached ----------------------------------------


    FORLOC:  cpu time      0.0022: real time      0.0022
    FORNL :  cpu time      0.2910: real time      0.2913
    STRESS:  cpu time      0.8777: real time      0.8779
    FORCOR:  cpu time      0.0193: real time      0.0193
    OFIELD:  cpu time      0.0001: real time      0.0001
    FORVDW:  cpu time      4.4138: real time      4.4141

  FORCE on cell =-STRESS in cart. coord.  units (eV):
  Direction    XX          YY          ZZ          XY          YZ          ZX
  --------------------------------------------------------------------------------------
  Alpha Z   875.25928   875.25928   875.25928
  Ewald  161112.87060161112.87060************     0.00000     0.00000    -0.00000
  Hartree171188.80709171188.80709************    -0.00000    -0.00000    -0.00000
  E(xc)   -2465.28987 -2465.28987 -2473.59540    -0.00000    -0.00000     0.00000
  Local  ************************342565.58370    -0.00000     0.00000    -0.00000
  n-local -2794.70315 -2795.51943 -2816.15225    -0.00000     0.00001    -0.00000
  augment  1046.60122  1046.60121  1036.90369     0.00000     0.00000    -0.00000
  Kinetic  7308.02991  7310.63710  7349.46783     0.00003    -0.00006     0.00000
  Fock        0.00000     0.00000     0.00000     0.00000     0.00000     0.00000
  vdW       -21.48523   -21.48525   -16.14747    -0.00000    -0.00000    -0.00000
  -------------------------------------------------------------------------------------
  Total     -26.38716   -26.38716    -1.72048     0.00000     0.00000     0.00000
  in kB     -27.81706   -27.81706    -1.81371     0.00000     0.00000     0.00000
  external pressure =      -19.15 kB  Pullay stress =        0.00 kB


 VOLUME and BASIS-vectors are now :
 -----------------------------------------------------------------------------
  energy-cutoff  :      600.00
  volume of cell :     1519.82
      direct lattice vectors                 reciprocal lattice vectors
     8.440984654  0.000000000  0.000000000     0.118469591  0.000000000  0.000000000
     0.000000000  8.440984654  0.000000000     0.000000000  0.118469591  0.000000000
     0.000000000  0.000000000 21.330738491     0.000000000  0.000000000  0.046880702

  length of vectors
     8.440984654  8.440984654 21.330738491     0.118469591  0.118469591  0.046880702


 FORCES acting on ions:
    Electron-Ion                     Ewald-Force                    Non-Local-Force
 -----------------------------------------------------------------------------------------------
   -.356E-13 0.762E-01 0.207E+04   0.560E-13 -.754E-01 -.206E+04   0.000E+00 -.528E-03 -.716E+01
   -.762E-01 -.438E-13 0.207E+04   0.754E-01 0.671E-13 -.206E+04   0.528E-03 0.529E-22 -.716E+01
   -.596E-13 0.108E-12 0.684E+03   -.150E-10 0.150E-10 -.684E+03   0.496E-23 0.000E+00 0.488E+00
   -.439E+00 0.439E+00 0.683E+03   0.441E+00 -.441E+00 -.684E+03   -.990E-03 0.990E-03 0.525E+00
   -.676E-13 0.276E+00 -.690E+03   0.157E-11 -.271E+00 0.690E+03   0.529E-22 0.112E-02 -.193E+00
   -.276E+00 -.360E-12 -.690E+03   0.271E+00 -.151E-11 0.690E+03   -.112E-02 0.000E+00 -.193E+00
   -.339E-13 0.859E-12 -.205E+04   0.444E-12 -.416E-12 0.204E+04   0.529E-22 0.000E+00 0.605E+01
   -.136E+01 0.136E+01 -.205E+04   0.121E+01 -.121E+01 0.204E+04   0.131E+00 -.131E+00 0.611E+01
   -.282E-13 -.762E-01 0.207E+04   -.277E-12 0.754E-01 -.206E+04   -.106E-21 0.528E-03 -.716E+01
   -.114E+00 0.960E-12 0.207E+04   0.116E+00 0.131E-10 -.206E+04   -.147E-02 -.106E-21 -.716E+01
   -.559E-13 0.121E-11 0.683E+03   -.165E-10 0.000E+00 -.684E+03   0.662E-23 0.000E+00 0.469E+00
   -.439E+00 -.439E+00 0.683E+03   0.441E+00 0.441E+00 -.684E+03   -.990E-03 -.990E-03 0.525E+00
   -.695E-13 -.276E+00 -.690E+03   0.304E-11 0.271E+00 0.690E+03   0.596E-22 -.112E-02 -.193E+00
   -.164E+01 0.650E-12 -.691E+03   0.172E+01 0.178E-14 0.692E+03   -.824E-01 0.529E-22 -.252E+00
   -.437E-13 0.102E-11 -.205E+04   -.355E-13 -.995E-13 0.204E+04   0.000E+00 0.000E+00 0.602E+01
   -.136E+01 -.136E+01 -.205E+04   0.121E+01 0.121E+01 0.204E+04   0.131E+00 0.131E+00 0.611E+01
   0.908E-12 0.114E+00 0.207E+04   -.129E-10 -.116E+00 -.206E+04   0.318E-21 0.147E-02 -.716E+01
   0.762E-01 -.114E-12 0.207E+04   -.754E-01 0.471E-13 -.206E+04   -.528E-03 -.529E-22 -.716E+01
   0.827E-12 0.185E-12 0.683E+03   0.145E-11 0.150E-10 -.684E+03   0.000E+00 0.265E-22 0.469E+00
   0.439E+00 0.439E+00 0.683E+03   -.441E+00 -.441E+00 -.684E+03   0.990E-03 0.990E-03 0.525E+00
   0.806E-12 0.164E+01 -.691E+03   -.141E-11 -.172E+01 0.692E+03   -.529E-22 0.824E-01 -.252E+00
   0.276E+00 -.377E-12 -.690E+03   -.271E+00 -.156E-11 0.690E+03   0.112E-02 0.000E+00 -.193E+00
   0.918E-12 -.131E-12 -.205E+04   0.782E-13 -.355E-14 0.204E+04   0.215E-22 0.000E+00 0.602E+01
   0.136E+01 0.136E+01 -.205E+04   -.121E+01 -.121E+01 0.204E+04   -.131E+00 -.131E+00 0.611E+01
   0.910E-12 -.114E+00 0.207E+04   -.131E-10 0.116E+00 -.206E+04   0.106E-21 -.147E-02 -.716E+01
   0.114E+00 0.488E-12 0.207E+04   -.116E+00 0.131E-10 -.206E+04   0.147E-02 0.265E-22 -.716E+01
   0.826E-12 0.150E-11 0.681E+03   -.782E-13 0.355E-14 -.682E+03   0.000E+00 0.662E-22 0.619E+00
   0.439E+00 -.439E+00 0.683E+03   -.441E+00 0.441E+00 -.684E+03   0.990E-03 -.990E-03 0.525E+00
   0.804E-12 -.164E+01 -.691E+03   -.284E-13 0.172E+01 0.692E+03   -.265E-22 -.824E-01 -.252E+00
   0.164E+01 -.219E-11 -.691E+03   -.172E+01 0.000E+00 0.692E+03   0.824E-01 0.529E-22 -.252E+00
   0.941E-12 0.939E-12 -.207E+04   -.426E-13 -.391E-13 0.206E+04   0.000E+00 -.265E-22 0.646E+01
   0.136E+01 -.136E+01 -.205E+04   -.121E+01 0.121E+01 0.204E+04   -.131E+00 0.131E+00 0.611E+01
   -.484E-13 0.176E+00 0.512E+03   0.409E-13 -.177E+00 -.512E+03   -.265E-22 0.132E-02 -.944E-01
   -.176E+00 -.219E-13 0.512E+03   0.177E+00 0.391E-13 -.512E+03   -.132E-02 0.000E+00 -.944E-01
   -.583E-13 0.121E-11 0.155E+04   0.853E-11 -.844E-11 -.156E+04   0.000E+00 0.529E-22 0.341E+01
   -.724E-01 0.724E-01 0.155E+04   0.725E-01 -.725E-01 -.156E+04   -.610E-04 0.610E-04 0.341E+01
   -.317E-13 0.423E+00 -.156E+04   -.871E-12 -.450E+00 0.156E+04   0.000E+00 0.124E-01 -.505E+01
   -.423E+00 -.633E-12 -.156E+04   0.450E+00 0.881E-12 0.156E+04   -.124E-01 -.265E-22 -.505E+01
   -.766E-13 0.224E-12 -.512E+03   -.853E-13 0.639E-13 0.511E+03   0.993E-23 0.000E+00 0.225E+00
   -.697E+00 0.697E+00 -.511E+03   0.687E+00 -.687E+00 0.511E+03   0.182E-01 -.182E-01 0.327E+00
   -.646E-13 -.176E+00 0.512E+03   0.142E-13 0.177E+00 -.512E+03   0.000E+00 -.132E-02 -.944E-01
   -.413E+00 0.670E-12 0.511E+03   0.385E+00 -.764E-11 -.511E+03   0.392E-01 -.529E-22 -.107E+00
   -.567E-13 0.176E-11 0.155E+04   0.845E-11 -.796E-12 -.156E+04   0.000E+00 -.159E-21 0.341E+01
   -.724E-01 -.724E-01 0.155E+04   0.725E-01 0.725E-01 -.156E+04   -.610E-04 -.610E-04 0.341E+01
   -.474E-13 -.423E+00 -.156E+04   -.774E-12 0.450E+00 0.156E+04   -.265E-22 -.124E-01 -.505E+01
   -.307E+01 0.721E-12 -.156E+04   0.301E+01 0.810E-11 0.156E+04   0.200E+00 0.000E+00 -.473E+01
   -.526E-13 0.283E-12 -.511E+03   -.741E-11 0.711E-14 0.510E+03   0.000E+00 0.000E+00 0.308E+00
   -.697E+00 -.697E+00 -.511E+03   0.687E+00 0.687E+00 0.511E+03   0.182E-01 0.182E-01 0.327E+00
   0.307E-12 0.413E+00 0.511E+03   0.764E-11 -.385E+00 -.511E+03   0.000E+00 -.392E-01 -.107E+00
   0.176E+00 -.185E-13 0.512E+03   -.177E+00 0.142E-13 -.512E+03   0.132E-02 0.000E+00 -.944E-01
   0.370E-12 -.182E-12 0.155E+04   0.845E-12 -.846E-11 -.156E+04   -.106E-21 0.000E+00 0.341E+01
   0.724E-01 0.724E-01 0.155E+04   -.725E-01 -.725E-01 -.156E+04   0.610E-04 0.610E-04 0.341E+01
   0.363E-12 0.307E+01 -.156E+04   -.816E-11 -.301E+01 0.156E+04   0.000E+00 -.200E+00 -.473E+01
   0.423E+00 -.700E-12 -.156E+04   -.450E+00 0.924E-12 0.156E+04   0.124E-01 -.106E-21 -.505E+01
   0.317E-12 0.273E-12 -.511E+03   -.711E-14 0.738E-11 0.510E+03   -.331E-23 0.000E+00 0.308E+00
   0.697E+00 0.697E+00 -.511E+03   -.687E+00 -.687E+00 0.511E+03   -.182E-01 -.182E-01 0.327E+00
   0.318E-12 -.413E+00 0.511E+03   0.763E-11 0.385E+00 -.511E+03   0.232E-22 0.392E-01 -.107E+00
   0.413E+00 0.135E-11 0.511E+03   -.385E+00 -.769E-11 -.511E+03   -.392E-01 -.265E-22 -.107E+00
   0.360E-12 0.741E-13 0.155E+04   0.824E-12 -.838E-12 -.156E+04   0.000E+00 0.000E+00 0.341E+01
   0.724E-01 -.724E-01 0.155E+04   -.725E-01 0.725E-01 -.156E+04   0.610E-04 -.610E-04 0.341E+01
   0.371E-12 -.307E+01 -.156E+04   -.820E-11 0.301E+01 0.156E+04   0.000E+00 0.200E+00 -.473E+01
   0.307E+01 -.170E-11 -.156E+04   -.301E+01 0.819E-11 0.156E+04   -.200E+00 0.000E+00 -.473E+01
   0.303E-12 0.483E-12 -.520E+03   -.497E-13 0.426E-13 0.520E+03   0.000E+00 0.000E+00 -.122E+00
   0.697E+00 -.697E+00 -.511E+03   -.687E+00 0.687E+00 0.511E+03   -.182E-01 0.182E-01 0.327E+00
 -----------------------------------------------------------------------------------------------
   0.266E-10 0.248E-10 0.165E+02   0.178E-12 -.744E-13 0.296E-11   -.902E-16 -.312E-16 -.165E+02


 POSITION                                       TOTAL-FORCE (eV/Angst)
 -----------------------------------------------------------------------------------
      0.00000      6.33074      7.50000        -0.000000      0.000225      0.336183
      2.11025      0.00000      7.50000        -0.000225     -0.000000      0.336183
      0.00000      0.00000      9.61025        -0.000000     -0.000000      0.073094
      2.11025      6.33074      9.61025         0.000700     -0.000700      0.072402
      0.00000      6.33023     11.73368        -0.000000      0.005817      0.006580
      2.11076      0.00000     11.73368        -0.005817     -0.000000      0.006580
      0.00000      0.00000     13.83822        -0.000000     -0.000000      0.017799
      2.10905      6.33193     13.83447        -0.023897      0.023897      0.029000
      0.00000      2.11025      7.50000        -0.000000     -0.000225      0.336183
      2.11025      4.22049      7.50000         0.000237     -0.000000      0.335754
      0.00000      4.22049      9.61025        -0.000000     -0.000000      0.077960
      2.11025      2.11025      9.61025         0.000700      0.000700      0.072402
      0.00000      2.11076     11.73368        -0.000000     -0.005817      0.006580
      2.11344      4.22049     11.73659        -0.005852     -0.000000     -0.003941
      0.00000      4.22049     13.83544        -0.000000     -0.000000      0.033662
      2.10905      2.10905     13.83447        -0.023897     -0.023897      0.029000
      4.22049      6.33074      7.50000        -0.000000     -0.000237      0.335754
      6.33074      0.00000      7.50000         0.000225     -0.000000      0.336183
      4.22049      0.00000      9.61025        -0.000000     -0.000000      0.077960
      6.33074      6.33074      9.61025        -0.000700     -0.000700      0.072402
      4.22049      6.32754     11.73659        -0.000000      0.005852     -0.003941
      6.33023      0.00000     11.73368         0.005817     -0.000000      0.006580
      4.22049      0.00000     13.83544        -0.000000     -0.000000      0.033662
      6.33193      6.33193     13.83447         0.023897      0.023897      0.029000
      4.22049      2.11025      7.50000        -0.000000      0.000237      0.335754
      6.33074      4.22049      7.50000        -0.000237     -0.000000      0.335754
      4.22049      4.22049      9.61025        -0.000000     -0.000000      0.080727
      6.33074      2.11025      9.61025        -0.000700      0.000700      0.072402
      4.22049      2.11344     11.73659        -0.000000     -0.005852     -0.003941
      6.32754      4.22049     11.73659         0.005852     -0.000000     -0.003941
      4.22049      4.22049     13.87814        -0.000000     -0.000000     -0.267981
      6.33193      2.10905     13.83447         0.023897     -0.023897      0.029000
      0.00000      6.33074      9.61025        -0.000000      0.000650      0.076140
      2.11025      0.00000      9.61025        -0.000650     -0.000000      0.076140
      0.00000      0.00000      7.50000        -0.000000     -0.000000     -0.501135
      2.11025      6.33074      7.50000        -0.000029      0.000029     -0.500681
      0.00000      6.33258     13.88587        -0.000000     -0.013799     -0.025860
      2.10840      0.00000     13.88587         0.013799     -0.000000     -0.025860
      0.00000      0.00000     11.72785        -0.000000     -0.000000     -0.003241
      2.10979      6.33120     11.72890         0.008028     -0.008028     -0.004502
      0.00000      2.11025      9.61025        -0.000000     -0.000650      0.076140
      2.11025      4.22049      9.61025         0.010237     -0.000000      0.087272
      0.00000      4.22049      7.50000        -0.000000     -0.000000     -0.500677
      2.11025      2.11025      7.50000        -0.000029     -0.000029     -0.500681
      0.00000      2.10840     13.88587        -0.000000      0.013799     -0.025860
      2.10031      4.22049     13.88381         0.139802     -0.000000      0.053386
      0.00000      4.22049     11.72684        -0.000000     -0.000000      0.010973
      2.10979      2.10979     11.72890         0.008028      0.008028     -0.004502
      4.22049      6.33074      9.61025        -0.000000     -0.010237      0.087272
      6.33074      0.00000      9.61025         0.000650     -0.000000      0.076140
      4.22049      0.00000      7.50000        -0.000000     -0.000000     -0.500677
      6.33074      6.33074      7.50000         0.000029      0.000029     -0.500681
      4.22049      6.34068     13.88381        -0.000000     -0.139802      0.053386
      6.33258      0.00000     13.88587        -0.013799     -0.000000     -0.025860
      4.22049      0.00000     11.72684        -0.000000     -0.000000      0.010973
      6.33120      6.33120     11.72890        -0.008028     -0.008028     -0.004502
      4.22049      2.11025      9.61025        -0.000000      0.010237      0.087272
      6.33074      4.22049      9.61025        -0.010237     -0.000000      0.087272
      4.22049      4.22049      7.50000        -0.000000     -0.000000     -0.501098
      6.33074      2.11025      7.50000         0.000029     -0.000029     -0.500681
      4.22049      2.10031     13.88381        -0.000000      0.139802      0.053386
      6.34068      4.22049     13.88381        -0.139802     -0.000000      0.053386
      4.22049      4.22049     11.73684        -0.000000     -0.000000      0.011068
      6.33120      2.10979     11.72890        -0.008028      0.008028     -0.004502
 -----------------------------------------------------------------------------------
    total drift:                                0.000000      0.000000     -0.029928


--------------------------------------------------------------------------------------------------------



  FREE ENERGIE OF THE ION-ELECTRON SYSTEM (eV)
  ---------------------------------------------------
  free  energy   TOTEN  =      -371.28708900 eV

  energy  without entropy=     -371.28708900  energy(sigma->0) =     -371.28708900



--------------------------------------------------------------------------------------------------------


    POTLOK:  cpu time      0.3145: real time      0.3145


--------------------------------------------------------------------------------------------------------


     LOOP+:  cpu time     37.5170: real time     37.6478
    4ORBIT:  cpu time      0.0000: real time      0.0000

 total amount of memory used by VASP MPI-rank0    69719. kBytes
=======================================================================

   base      :      30000. kBytes
   nonl-proj :      20988. kBytes
   fftplans  :       3857. kBytes
   grid      :       5439. kBytes
   one-center:        129. kBytes
   wavefun   :       9306. kBytes

  
  
 General timing and accounting informations for this job:
 ========================================================
  
                  Total CPU time used (sec):       52.318
                            User time (sec):       51.278
                          System time (sec):        1.040
                         Elapsed time (sec):       54.675
  
                   Maximum memory used (kb):      170104.
                   Average memory used (kb):          N/A
  
                          Minor page faults:        32246
                          Major page faults:            0
                 Voluntary context switches:         6786
