 vasp.6.3.0 20Jan22 (build Apr  1 2022 16:44:48) complex                         
 executed on        HPECrayEX_GCC date 2022.09.24  18:10:48
 running  512 mpi-ranks, with    1 threads/rank
 distrk:  each k-point on  256 cores,    2 groups
 distr:  one band on NCORE=   4 cores,   64 groups


--------------------------------------------------------------------------------------------------------


 INCAR:
   SYSTEM = MgO-rocksalt
   ISMEAR = 0
   SIGMA = 0.05
   EDIFF = 1E-6
   ALGO = ALL
   ISTART = 0
   IBRION = 2
   NSW = 1000
   ISYM = 2
   ISIF = 2
   EDIFFG = -0.01
   DIPOL = 0.5 0.5 0.5
   IDIPOL = 3
   LDIPOL = .TRUE.
   GGA = RE
   IVDW = 13
   VDW_S8 = 1.7468
   VDW_A1 = 0.5363
   VDW_A2 = 3.0726
   ENCUT = 600
   PREC = Normal
   LASPH = .TRUE.
   LREAL = .FALSE.
   ISPIN = 1
   NELM = 200
   NELMIN = 8
   NCORE = 4
   KPAR = 2
   LWAVE = .FALSE.
   LCHARG = .FALSE.

 POTCAR:    PAW_PBE Mg_pv 13Apr2007               
 POTCAR:    PAW_PBE O 08Apr2002                   
 POTCAR:    PAW_PBE Mg_pv 13Apr2007               
   SHA256 =  f474ac0dd33840b9ae76c01d57fea79fdf77cdfbb07d5ade72c65f83c709b62b Mg_pv/POTCAR          
   COPYR  = (c) Copyright 13Apr2007 Georg Kresse                                                    
   COPYR  = This file is part of the software VASP. Any use, copying, and all other rights are regul
   COPYR  = If you do not have a valid VASP license, you may not use, copy or distribute this file. 
   VRHFIN =Mg: p6s2                                                                                 
   LEXCH  = PE                                                                                      
   EATOM  =  1056.7344 eV,   77.6678 Ry                                                             
                                                                                                    
   TITEL  = PAW_PBE Mg_pv 13Apr2007                                                                 
   LULTRA =        F    use ultrasoft PP ?                                                          
   IUNSCR =        1    unscreen: 0-lin 1-nonlin 2-no                                               
   RPACOR =    1.500    partial core radius                                                         
   POMASS =   24.305; ZVAL   =    8.000    mass and valenz                                          
   RCORE  =    2.000    outmost cutoff radius                                                       
   RWIGS  =    2.000; RWIGS  =    1.058    wigner-seitz radius (au A)                               
   ENMAX  =  403.929; ENMIN  =  302.947 eV                                                          
   RCLOC  =    1.506    cutoff for local pot                                                        
   LCOR   =        T    correct aug charges                                                         
   LPAW   =        T    paw PP                                                                      
   EAUG   =  758.780                                                                                
   DEXC   =    0.000                                                                                
   RMAX   =    2.045    core radius for proj-oper                                                   
   RAUG   =    1.300    factor for augmentation sphere                                              
   RDEP   =    2.025    radius for radial grids                                                     
   RDEPT  =    1.557    core radius for aug-charge                                                  
                                                                                                    
   Atomic configuration                                                                             
    5 entries                                                                                       
     n  l   j            E        occ.                                                              
     1  0  0.50     -1259.6230   2.0000                                                             
     2  0  0.50       -79.8442   2.0000                                                             
     2  1  1.50       -46.6121   6.0000                                                             
     3  0  0.50        -4.7055   2.0000                                                             
     3  2  1.50        -1.3606   0.0000                                                             
   Description                                                                                      
     l       E           TYP  RCUT    TYP  RCUT                                                     
     1    -46.6121073     23  1.600                                                                 
     1      2.7211652     23  1.600                                                                 
     0     -4.7054661     23  2.000                                                                 
     0     61.2262170     23  2.000                                                                 
     2     -1.3605826     23  2.000                                                                 
  local pseudopotential read in
  partial core-charges read in
  partial kinetic energy density read in
  atomic valenz-charges read in
  non local Contribution for L=           1  read in
    real space projection operators read in
  non local Contribution for L=           1  read in
    real space projection operators read in
  non local Contribution for L=           0  read in
    real space projection operators read in
  non local Contribution for L=           0  read in
    real space projection operators read in
  non local Contribution for L=           2  read in
    real space projection operators read in
    PAW grid and wavefunctions read in

   number of l-projection  operators is LMAX  =           5
   number of lm-projection operators is LMMAX =          13

 POTCAR:    PAW_PBE O 08Apr2002                   
   SHA256 =  818f92134a0a090dccd8ba1447fa70422a3b330e708bb4f08108d8ae51209ddf O/POTCAR              
   COPYR  = (c) Copyright 08Apr2002 Georg Kresse                                                    
   COPYR  = This file is part of the software VASP. Any use, copying, and all other rights are regul
   COPYR  = If you do not have a valid VASP license, you may not use, copy or distribute this file. 
   VRHFIN =O: s2p4                                                                                  
   LEXCH  = PE                                                                                      
   EATOM  =   432.3788 eV,   31.7789 Ry                                                             
                                                                                                    
   TITEL  = PAW_PBE O 08Apr2002                                                                     
   LULTRA =        F    use ultrasoft PP ?                                                          
   IUNSCR =        1    unscreen: 0-lin 1-nonlin 2-no                                               
   RPACOR =    1.200    partial core radius                                                         
   POMASS =   16.000; ZVAL   =    6.000    mass and valenz                                          
   RCORE  =    1.520    outmost cutoff radius                                                       
   RWIGS  =    1.550; RWIGS  =    0.820    wigner-seitz radius (au A)                               
   ENMAX  =  400.000; ENMIN  =  300.000 eV                                                          
   ICORE  =        2    local potential                                                             
   LCOR   =        T    correct aug charges                                                         
   LPAW   =        T    paw PP                                                                      
   EAUG   =  605.392                                                                                
   DEXC   =    0.000                                                                                
   RMAX   =    1.553    core radius for proj-oper                                                   
   RAUG   =    1.300    factor for augmentation sphere                                              
   RDEP   =    1.550    radius for radial grids                                                     
   RDEPT  =    1.329    core radius for aug-charge                                                  
                                                                                                    
   Atomic configuration                                                                             
    4 entries                                                                                       
     n  l   j            E        occ.                                                              
     1  0  0.50      -514.6923   2.0000                                                             
     2  0  0.50       -23.9615   2.0000                                                             
     2  1  0.50        -9.0305   4.0000                                                             
     3  2  1.50        -9.5241   0.0000                                                             
   Description                                                                                      
     l       E           TYP  RCUT    TYP  RCUT                                                     
     0    -23.9615318     23  1.200                                                                 
     0     -9.5240782     23  1.200                                                                 
     1     -9.0304911     23  1.520                                                                 
     1      8.1634956     23  1.520                                                                 
     2     -9.5240782      7  1.500                                                                 
  local pseudopotential read in
  partial core-charges read in
  partial kinetic energy density read in
  kinetic energy density of atom read in
  atomic valenz-charges read in
  non local Contribution for L=           0  read in
    real space projection operators read in
  non local Contribution for L=           0  read in
    real space projection operators read in
  non local Contribution for L=           1  read in
    real space projection operators read in
  non local Contribution for L=           1  read in
    real space projection operators read in
    PAW grid and wavefunctions read in

   number of l-projection  operators is LMAX  =           4
   number of lm-projection operators is LMMAX =           8

 -----------------------------------------------------------------------------
|                                                                             |
|               ----> ADVICE to this user running VASP <----                  |
|                                                                             |
|     You have a (more or less) 'large supercell' and for larger cells it     |
|     might be more efficient to use real-space projection operators.         |
|     Therefore, try LREAL= Auto in the INCAR file.                           |
|     Mind: For very accurate calculation, you might also keep the            |
|     reciprocal projection scheme (i.e. LREAL=.FALSE.).                      |
|                                                                             |
 -----------------------------------------------------------------------------

 -----------------------------------------------------------------------------
|                                                                             |
|               ----> ADVICE to this user running VASP <----                  |
|                                                                             |
|     You enforced a specific xc type in the INCAR file but a different       |
|     type was found in the POTCAR file.                                      |
|     I HOPE YOU KNOW WHAT YOU ARE DOING!                                     |
|                                                                             |
 -----------------------------------------------------------------------------

  PAW_PBE Mg_pv 13Apr2007               :
 energy of atom  1       EATOM=-1056.7344
 kinetic energy error for atom=    0.0221 (will be added to EATOM!!)
  PAW_PBE O 08Apr2002                   :
 energy of atom  2       EATOM= -432.3788
 kinetic energy error for atom=    0.0168 (will be added to EATOM!!)


 POSCAR: Mg  O
  positions in direct lattice
  No initial velocities read in
 -----------------------------------------------------------------------------
|                                                                             |
|           W    W    AA    RRRRR   N    N  II  N    N   GGGG   !!!           |
|           W    W   A  A   R    R  NN   N  II  NN   N  G    G  !!!           |
|           W    W  A    A  R    R  N N  N  II  N N  N  G       !!!           |
|           W WW W  AAAAAA  RRRRR   N  N N  II  N  N N  G  GGG   !            |
|           WW  WW  A    A  R   R   N   NN  II  N   NN  G    G                |
|           W    W  A    A  R    R  N    N  II  N    N   GGGG   !!!           |
|                                                                             |
|     Specifying the vdW parameters                                           |
|     VDW_S8 = 1.747                                                          |
|     VDW_A1 = 0.536                                                          |
|     VDW_A2 = 3.073                                                          |
|     in the INCAR file will overwrite the defaults for revpbe. Please        |
|     make sure that is what you intended.                                    |
|                                                                             |
 -----------------------------------------------------------------------------

 exchange correlation table for  LEXCH =       40
   RHO(1)=    0.500       N(1)  =     2000
   RHO(2)=  100.500       N(2)  =     4000



--------------------------------------------------------------------------------------------------------


 ion  position               nearest neighbor table
   1  0.000  0.750  0.352-  33 2.11  35 2.11  36 2.11  43 2.11  52 2.11
   2  0.250  0.000  0.352-  34 2.11  35 2.11  36 2.11  44 2.11  51 2.11
   3  0.000  0.000  0.451-  35 2.11  34 2.11  33 2.11  41 2.11  50 2.11  39 2.11
   4  0.250  0.750  0.451-  36 2.11  34 2.11  33 2.11  42 2.11  49 2.11  40 2.11
   5  0.000  0.750  0.549-  37 2.11  39 2.11  40 2.11  47 2.11  56 2.11  33 2.11
   6  0.250  0.000  0.549-  38 2.11  39 2.11  40 2.11  48 2.11  55 2.11  34 2.11
   7  0.000  0.000  0.648-  39 2.11  38 2.11  37 2.11  45 2.11  54 2.11
   8  0.250  0.750  0.648-  40 2.11  38 2.11  37 2.11  46 2.11  53 2.11
   9  0.000  0.250  0.352-  41 2.11  35 2.11  43 2.11  44 2.11  60 2.11
  10  0.250  0.500  0.352-  42 2.11  36 2.11  43 2.11  44 2.11  59 2.11
  11  0.000  0.500  0.451-  43 2.11  41 2.11  42 2.11  33 2.11  58 2.11  47 2.11
  12  0.250  0.250  0.451-  44 2.11  41 2.11  42 2.11  34 2.11  57 2.11  48 2.11
  13  0.000  0.250  0.549-  45 2.11  39 2.11  47 2.11  48 2.11  64 2.11  41 2.11
  14  0.250  0.500  0.549-  46 2.11  40 2.11  47 2.11  48 2.11  63 2.11  42 2.11
  15  0.000  0.500  0.648-  47 2.11  45 2.11  46 2.11  37 2.11  62 2.11
  16  0.250  0.250  0.648-  48 2.11  45 2.11  46 2.11  38 2.11  61 2.11
  17  0.500  0.750  0.352-  49 2.11  36 2.11  51 2.11  52 2.11  59 2.11
  18  0.750  0.000  0.352-  50 2.11  35 2.11  51 2.11  52 2.11  60 2.11
  19  0.500  0.000  0.451-  51 2.11  49 2.11  50 2.11  34 2.11  57 2.11  55 2.11
  20  0.750  0.750  0.451-  52 2.11  49 2.11  50 2.11  33 2.11  58 2.11  56 2.11
  21  0.500  0.750  0.549-  53 2.11  40 2.11  55 2.11  56 2.11  63 2.11  49 2.11
  22  0.750  0.000  0.549-  54 2.11  39 2.11  55 2.11  56 2.11  64 2.11  50 2.11
  23  0.500  0.000  0.648-  55 2.11  53 2.11  54 2.11  38 2.11  61 2.11
  24  0.750  0.750  0.648-  56 2.11  53 2.11  54 2.11  37 2.11  62 2.11
  25  0.500  0.250  0.352-  57 2.11  51 2.11  44 2.11  59 2.11  60 2.11
  26  0.750  0.500  0.352-  58 2.11  52 2.11  43 2.11  59 2.11  60 2.11
  27  0.500  0.500  0.451-  59 2.11  49 2.11  57 2.11  58 2.11  42 2.11  63 2.11
  28  0.750  0.250  0.451-  60 2.11  50 2.11  57 2.11  58 2.11  41 2.11  64 2.11
  29  0.500  0.250  0.549-  61 2.11  55 2.11  48 2.11  63 2.11  64 2.11  57 2.11
  30  0.750  0.500  0.549-  62 2.11  56 2.11  47 2.11  63 2.11  64 2.11  58 2.11
  31  0.500  0.500  0.648-  63 2.11  53 2.11  61 2.11  62 2.11  46 2.11
  32  0.750  0.250  0.648-  64 2.11  54 2.11  61 2.11  62 2.11  45 2.11
  33  0.000  0.750  0.451-   1 2.11   3 2.11   4 2.11  11 2.11  20 2.11   5 2.11
  34  0.250  0.000  0.451-   2 2.11   3 2.11   4 2.11  12 2.11  19 2.11   6 2.11
  35  0.000  0.000  0.352-   3 2.11   2 2.11   1 2.11   9 2.11  18 2.11
  36  0.250  0.750  0.352-   4 2.11   2 2.11   1 2.11  10 2.11  17 2.11
  37  0.000  0.750  0.648-   5 2.11   7 2.11   8 2.11  15 2.11  24 2.11
  38  0.250  0.000  0.648-   6 2.11   7 2.11   8 2.11  16 2.11  23 2.11
  39  0.000  0.000  0.549-   7 2.11   6 2.11   5 2.11  13 2.11  22 2.11   3 2.11
  40  0.250  0.750  0.549-   8 2.11   6 2.11   5 2.11  14 2.11  21 2.11   4 2.11
  41  0.000  0.250  0.451-   9 2.11   3 2.11  11 2.11  12 2.11  28 2.11  13 2.11
  42  0.250  0.500  0.451-  10 2.11   4 2.11  11 2.11  12 2.11  27 2.11  14 2.11
  43  0.000  0.500  0.352-  11 2.11   9 2.11  10 2.11   1 2.11  26 2.11
  44  0.250  0.250  0.352-  12 2.11   9 2.11  10 2.11   2 2.11  25 2.11
  45  0.000  0.250  0.648-  13 2.11   7 2.11  15 2.11  16 2.11  32 2.11
  46  0.250  0.500  0.648-  14 2.11   8 2.11  15 2.11  16 2.11  31 2.11
  47  0.000  0.500  0.549-  15 2.11  13 2.11  14 2.11   5 2.11  30 2.11  11 2.11
  48  0.250  0.250  0.549-  16 2.11  13 2.11  14 2.11   6 2.11  29 2.11  12 2.11
  49  0.500  0.750  0.451-  17 2.11   4 2.11  19 2.11  20 2.11  27 2.11  21 2.11
  50  0.750  0.000  0.451-  18 2.11   3 2.11  19 2.11  20 2.11  28 2.11  22 2.11
  51  0.500  0.000  0.352-  19 2.11  17 2.11  18 2.11   2 2.11  25 2.11
  52  0.750  0.750  0.352-  20 2.11  17 2.11  18 2.11   1 2.11  26 2.11
  53  0.500  0.750  0.648-  21 2.11   8 2.11  23 2.11  24 2.11  31 2.11
  54  0.750  0.000  0.648-  22 2.11   7 2.11  23 2.11  24 2.11  32 2.11
  55  0.500  0.000  0.549-  23 2.11  21 2.11  22 2.11   6 2.11  29 2.11  19 2.11
  56  0.750  0.750  0.549-  24 2.11  21 2.11  22 2.11   5 2.11  30 2.11  20 2.11
  57  0.500  0.250  0.451-  25 2.11  19 2.11  12 2.11  27 2.11  28 2.11  29 2.11
  58  0.750  0.500  0.451-  26 2.11  20 2.11  11 2.11  27 2.11  28 2.11  30 2.11
  59  0.500  0.500  0.352-  27 2.11  17 2.11  25 2.11  26 2.11  10 2.11
  60  0.750  0.250  0.352-  28 2.11  18 2.11  25 2.11  26 2.11   9 2.11
  61  0.500  0.250  0.648-  29 2.11  23 2.11  16 2.11  31 2.11  32 2.11
  62  0.750  0.500  0.648-  30 2.11  24 2.11  15 2.11  31 2.11  32 2.11
  63  0.500  0.500  0.549-  31 2.11  21 2.11  29 2.11  30 2.11  14 2.11  27 2.11
  64  0.750  0.250  0.549-  32 2.11  22 2.11  29 2.11  30 2.11  13 2.11  28 2.11

  LATTYP: Found a simple tetragonal cell.
 ALAT       =     8.4409846542
 C/A-ratio  =     2.5270438657
  
  Lattice vectors:
  
 A1 = (   8.4409846542,   0.0000000000,   0.0000000000)
 A2 = (   0.0000000000,   8.4409846542,   0.0000000000)
 A3 = (   0.0000000000,   0.0000000000,  21.3307384906)


Analysis of symmetry for initial positions (statically):
=====================================================================
 Subroutine PRICEL returns following result:
 
  LATTYP: Found a simple tetragonal cell.
 ALAT       =     2.9843387444
 C/A-ratio  =     7.1475594151
  
  Lattice vectors:
  
 A1 = (   2.1102461635,  -2.1102461635,   0.0000000000)
 A2 = (   2.1102461635,   2.1102461635,   0.0000000000)
 A3 = (   0.0000000000,   0.0000000000,  21.3307384906)
 
   8 primitive cells build up your supercell.
 

 Routine SETGRP: Setting up the symmetry group for a 
 simple tetragonal supercell.


 Subroutine GETGRP returns: Found 16 space group operations
 (whereof  8 operations were pure point group operations)
 out of a pool of 16 trial point group operations.


The static configuration has the point symmetry C_4v.
 The point group associated with its full space group is D_4h.


Analysis of symmetry for dynamics (positions and initial velocities):
=====================================================================
 Subroutine PRICEL returns following result:
 
  LATTYP: Found a simple tetragonal cell.
 ALAT       =     2.9843387444
 C/A-ratio  =     7.1475594151
  
  Lattice vectors:
  
 A1 = (   2.1102461635,  -2.1102461635,   0.0000000000)
 A2 = (   2.1102461635,   2.1102461635,   0.0000000000)
 A3 = (   0.0000000000,   0.0000000000,  21.3307384906)
 
   8 primitive cells build up your supercell.
 

 Routine SETGRP: Setting up the symmetry group for a 
 simple tetragonal supercell.


 Subroutine GETGRP returns: Found 16 space group operations
 (whereof  8 operations were pure point group operations)
 out of a pool of 16 trial point group operations.


The dynamic configuration has the point symmetry C_4v.
 The point group associated with its full space group is D_4h.


Analysis of constrained symmetry for selective dynamics:
=====================================================================
 Subroutine PRICEL returns following result:
 
  LATTYP: Found a simple tetragonal cell.
 ALAT       =     2.9843387444
 C/A-ratio  =     7.1475594151
  
  Lattice vectors:
  
 A1 = (   2.1102461635,  -2.1102461635,   0.0000000000)
 A2 = (   2.1102461635,   2.1102461635,   0.0000000000)
 A3 = (   0.0000000000,   0.0000000000,  21.3307384906)
 
   8 primitive cells build up your supercell.
 

 Routine SETGRP: Setting up the symmetry group for a 
 simple tetragonal supercell.


 Subroutine GETGRP returns: Found  8 space group operations
 (whereof  8 operations were pure point group operations)
 out of a pool of 16 trial point group operations.


The constrained configuration has the point symmetry C_4v.


 Subroutine INISYM returns: Found  8 space group operations
 (whereof  8 operations are pure point group operations),
 and found     8 'primitive' translations


----------------------------------------------------------------------------------------

                                     Primitive cell                                     

  volume of cell :     189.9775

  direct lattice vectors                    reciprocal lattice vectors
     2.110246164 -2.110246164  0.000000000     0.236939182 -0.236939182  0.000000000
     2.110246164  2.110246164  0.000000000     0.236939182  0.236939182 -0.000000000
     0.000000000  0.000000000 21.330738491    -0.000000000  0.000000000  0.046880702

  length of vectors
     2.984338744  2.984338744 21.330738491     0.335082605  0.335082605  0.046880702

  position of ions in fractional coordinates (direct lattice)
     0.500000000  0.500000000  0.351605267
     0.000000000  0.000000000  0.450535089
     0.500000000  0.500000000  0.549464911
     0.000000000  0.000000000  0.648394733
     0.500000000  0.500000000  0.450535089
     0.000000000  0.000000000  0.351605267
     0.500000000  0.500000000  0.648394733
     0.000000000  0.000000000  0.549464911

  ion indices of the primitive-cell ions
   primitive index   ion index
                 1           1
                 2           3
                 3           5
                 4           7
                 5          33
                 6          35
                 7          37
                 8          39

----------------------------------------------------------------------------------------



 KPOINTS: pymatgen v2020.8.13 with grid density = 

Automatic generation of k-mesh.
 Grid dimensions read from file:
 generate k-points for:    2    2    1

 Generating k-lattice:

  Cartesian coordinates                     Fractional coordinates (reciprocal lattice)
     0.059234796  0.000000000  0.000000000     0.500000000  0.000000000  0.000000000
     0.000000000  0.059234796  0.000000000     0.000000000  0.500000000  0.000000000
     0.000000000  0.000000000  0.046880702     0.000000000  0.000000000  1.000000000

  Length of vectors
     0.059234796  0.059234796  0.046880702

  Shift w.r.t. Gamma in fractional coordinates (k-lattice)
     0.000000000  0.000000000  0.000000000

 
 Subroutine IBZKPT returns following result:
 ===========================================
 
 Found      3 irreducible k-points:
 
 Following reciprocal coordinates:
            Coordinates               Weight
  0.000000  0.000000  0.000000      1.000000
  0.500000  0.000000  0.000000      2.000000
  0.500000  0.500000  0.000000      1.000000
 
 Following cartesian coordinates:
            Coordinates               Weight
  0.000000  0.000000  0.000000      1.000000
  0.059235  0.000000  0.000000      2.000000
  0.059235  0.059235  0.000000      1.000000
 


--------------------------------------------------------------------------------------------------------




 Dimension of arrays:
   k-points           NKPTS =      3   k-points in BZ     NKDIM =      3   number of bands    NBANDS=    320
   number of dos      NEDOS =    301   number of ions     NIONS =     64
   non local maximal  LDIM  =      5   non local SUM 2l+1 LMDIM =     13
   total plane-waves  NPLWV = 373248
   max r-space proj   IRMAX =      1   max aug-charges    IRDMAX=   5039
   dimension x,y,z NGX =    54 NGY =   54 NGZ =  128
   dimension x,y,z NGXF=   108 NGYF=  108 NGZF=  256
   support grid    NGXF=   108 NGYF=  108 NGZF=  256
   ions per type =              32  32
   NGX,Y,Z   is equivalent  to a cutoff of  10.64, 10.64,  9.98 a.u.
   NGXF,Y,Z  is equivalent  to a cutoff of  21.27, 21.27, 19.95 a.u.

 SYSTEM =  MgO-rocksalt                            
 POSCAR =  Mg  O                                   

 Startparameter for this run:
   NWRITE =      2    write-flag & timer
   PREC   = normal    normal or accurate (medium, high low for compatibility)
   ISTART =      0    job   : 0-new  1-cont  2-samecut
   ICHARG =      2    charge: 1-file 2-atom 10-const
   ISPIN  =      1    spin polarized calculation?
   LNONCOLLINEAR =      F non collinear calculations
   LSORBIT =      F    spin-orbit coupling
   INIWAV =      1    electr: 0-lowe 1-rand  2-diag
   LASPH  =      T    aspherical Exc in radial PAW
 Electronic Relaxation 1
   ENCUT  =  600.0 eV  44.10 Ry    6.64 a.u.  16.86 16.86 42.60*2*pi/ulx,y,z
   ENINI  =  600.0     initial cutoff
   ENAUG  =  758.8 eV  augmentation charge cutoff
   NELM   =    200;   NELMIN=  8; NELMDL= -5     # of ELM steps 
   EDIFF  = 0.1E-05   stopping-criterion for ELM
   LREAL  =      F    real-space projection
   NLSPLINE    = F    spline interpolate recip. space projectors
   LCOMPAT=      F    compatible to vasp.4.4
   GGA_COMPAT  = T    GGA compatible to vasp.4.4-vasp.4.6
   LMAXPAW     = -100 max onsite density
   LMAXMIX     =    2 max onsite mixed and CHGCAR
   VOSKOWN=      0    Vosko Wilk Nusair interpolation
   ROPT   =    0.00000   0.00000
 Ionic relaxation
   EDIFFG = -.1E-01   stopping-criterion for IOM
   NSW    =   1000    number of steps for IOM
   NBLOCK =      1;   KBLOCK =   1000    inner block; outer block 
   IBRION =      2    ionic relax: 0-MD 1-quasi-New 2-CG
   NFREE  =      1    steps in history (QN), initial steepest desc. (CG)
   ISIF   =      2    stress and relaxation
   IWAVPR =     11    prediction:  0-non 1-charg 2-wave 3-comb
   ISYM   =      2    0-nonsym 1-usesym 2-fastsym
   LCORR  =      T    Harris-Foulkes like correction to forces

   POTIM  = 0.5000    time-step for ionic-motion
   TEIN   =    0.0    initial temperature
   TEBEG  =    0.0;   TEEND  =   0.0 temperature during run
   SMASS  =  -3.00    Nose mass-parameter (am)
   estimated Nose-frequenzy (Omega)   =  0.10E-29 period in steps = 0.13E+47 mass=  -0.163E-26a.u.
   SCALEE = 1.0000    scale energy and forces
   NPACO  =    256;   APACO  = 10.0  distance and # of slots for P.C.
   PSTRESS=    0.0 pullay stress

  Mass of Ions in am
   POMASS =  24.30 16.00
  Ionic Valenz
   ZVAL   =   8.00  6.00
  Atomic Wigner-Seitz radii
   RWIGS  =  -1.00 -1.00
  virtual crystal weights 
   VCA    =   1.00  1.00
   NELECT =     448.0000    total number of electrons
   NUPDOWN=      -1.0000    fix difference up-down

 DOS related values:
   EMIN   =  10.00;   EMAX   =-10.00  energy-range for DOS
   EFERMI =   0.00
   ISMEAR =     0;   SIGMA  =   0.05  broadening in eV -4-tet -1-fermi 0-gaus

 Electronic relaxation 2 (details)
   IALGO  =     58    algorithm
   LDIAG  =      T    sub-space diagonalisation (order eigenvalues)
   LSUBROT=      F    optimize rotation matrix (better conditioning)
   TURBO    =      0    0=normal 1=particle mesh
   IRESTART =      0    0=no restart 2=restart with 2 vectors
   NREBOOT  =      0    no. of reboots
   NMIN     =      0    reboot dimension
   EREF     =   0.00    reference energy to select bands
   IMIX   =      4    mixing-type and parameters
     AMIX     =   0.40;   BMIX     =  1.00
     AMIX_MAG =   1.60;   BMIX_MAG =  1.00
     AMIN     =   0.10
     WC   =   100.;   INIMIX=   1;  MIXPRE=   1;  MAXMIX= -45

 Intra band minimization:
   WEIMIN = 0.0010     energy-eigenvalue tresh-hold
   EBREAK =  0.78E-09  absolut break condition
   DEPER  =   0.30     relativ break condition  

   TIME   =   0.40     timestep for ELM

  volume/ion in A,a.u.               =      23.75       160.25
  Fermi-wavevector in a.u.,A,eV,Ry     =   1.089524  2.058902 16.150966  1.187063
  Thomas-Fermi vector in A             =   2.225729

 Write flags
   LWAVE        =      F    write WAVECAR
   LDOWNSAMPLE  =      F    k-point downsampling of WAVECAR
   LCHARG       =      F    write CHGCAR
   LVTOT        =      F    write LOCPOT, total local potential
   LVHAR        =      F    write LOCPOT, Hartree potential only
   LELF         =      F    write electronic localiz. function (ELF)
   LORBIT       =      0    0 simple, 1 ext, 2 COOP (PROOUT), +10 PAW based schemes


 Dipole corrections
   LMONO  =      F    monopole corrections only (constant potential shift)
   LDIPOL =      T    correct potential (dipole corrections)
   IDIPOL =      3    1-x, 2-y, 3-z, 4-all directions 
   EPSILON=  1.0000000 bulk dielectric constant

 Exchange correlation treatment:
   GGA     =    RE    GGA type
   LEXCH   =    40    internal setting for exchange type
   LIBXC   =     F    Libxc                    
   VOSKOWN =     0    Vosko Wilk Nusair interpolation
   LHFCALC =     F    Hartree Fock is set to
   LHFONE  =     F    Hartree Fock one center treatment
   AEXX    =    0.0000 exact exchange contribution

 Linear response parameters
   LEPSILON=     F    determine dielectric tensor
   LRPA    =     F    only Hartree local field effects (RPA)
   LNABLA  =     F    use nabla operator in PAW spheres
   LVEL    =     F    velocity operator in full k-point grid
   CSHIFT  =0.1000    complex shift for real part using Kramers Kronig
   OMEGAMAX=  -1.0    maximum frequency
   DEG_THRESHOLD= 0.2000000E-02 threshold for treating states as degnerate
   RTIME   =   -0.100 relaxation time in fs
  (WPLASMAI=    0.000 imaginary part of plasma frequency in eV, 0.658/RTIME)
   DFIELD  = 0.0000000 0.0000000 0.0000000 field for delta impulse in time

  Optional k-point grid parameters
   LKPOINTS_OPT  =     F    use optional k-point grid
   KPOINTS_OPT_MODE=     1    mode for optional k-point grid

 Orbital magnetization related:
   ORBITALMAG=     F  switch on orbital magnetization
   LCHIMAG   =     F  perturbation theory with respect to B field
   DQ        =  0.001000  dq finite difference perturbation B field
   LLRAUG    =     F  two centre corrections for induced B field



--------------------------------------------------------------------------------------------------------


 conjugate gradient relaxation of ions
   using selective dynamics as specified on POSCAR
 charge density and potential will be updated during run
 non-spin polarized calculation
 Conjugate gradient for all bands (Freysoldt, et al. PRB 79, 241103 (2009))
 preconditioned conjugated gradient                                        
 perform sub-space diagonalisation
    before iterative eigenvector-optimisation
 modified Broyden-mixing scheme, WC =      100.0
 initial mixing is a Kerker type mixing with AMIX =  0.4000 and BMIX =      1.0000
 Hartree-type preconditioning will be used
 using additional bands           96
 reciprocal scheme for non local part
 use partial core corrections
 no Harris-corrections to forces 
 use gradient corrections 
 use of overlap-Matrix (Vanderbilt PP)
 Gauss-broadening in eV      SIGMA  =   0.05


--------------------------------------------------------------------------------------------------------


  energy-cutoff  :      600.00
  volume of cell :     1519.82
      direct lattice vectors                 reciprocal lattice vectors
     8.440984654  0.000000000  0.000000000     0.118469591  0.000000000  0.000000000
     0.000000000  8.440984654  0.000000000     0.000000000  0.118469591  0.000000000
     0.000000000  0.000000000 21.330738491     0.000000000  0.000000000  0.046880702

  length of vectors
     8.440984654  8.440984654 21.330738491     0.118469591  0.118469591  0.046880702



 k-points in units of 2pi/SCALE and weight: pymatgen v2020.8.13 with grid density = 
   0.00000000  0.00000000  0.00000000       0.250
   0.05923480  0.00000000  0.00000000       0.500
   0.05923480  0.05923480  0.00000000       0.250

 k-points in reciprocal lattice and weights: pymatgen v2020.8.13 with grid density = 
   0.00000000  0.00000000  0.00000000       0.250
   0.50000000  0.00000000  0.00000000       0.500
   0.50000000  0.50000000  0.00000000       0.250

 position of ions in fractional coordinates (direct lattice) 
   0.00000000  0.75000000  0.35160527
   0.25000000  0.00000000  0.35160527
   0.00000000  0.00000000  0.45053509
   0.25000000  0.75000000  0.45053509
   0.00000000  0.75000000  0.54946491
   0.25000000  0.00000000  0.54946491
   0.00000000  0.00000000  0.64839473
   0.25000000  0.75000000  0.64839473
   0.00000000  0.25000000  0.35160527
   0.25000000  0.50000000  0.35160527
   0.00000000  0.50000000  0.45053509
   0.25000000  0.25000000  0.45053509
   0.00000000  0.25000000  0.54946491
   0.25000000  0.50000000  0.54946491
   0.00000000  0.50000000  0.64839473
   0.25000000  0.25000000  0.64839473
   0.50000000  0.75000000  0.35160527
   0.75000000  0.00000000  0.35160527
   0.50000000  0.00000000  0.45053509
   0.75000000  0.75000000  0.45053509
   0.50000000  0.75000000  0.54946491
   0.75000000  0.00000000  0.54946491
   0.50000000  0.00000000  0.64839473
   0.75000000  0.75000000  0.64839473
   0.50000000  0.25000000  0.35160527
   0.75000000  0.50000000  0.35160527
   0.50000000  0.50000000  0.45053509
   0.75000000  0.25000000  0.45053509
   0.50000000  0.25000000  0.54946491
   0.75000000  0.50000000  0.54946491
   0.50000000  0.50000000  0.64839473
   0.75000000  0.25000000  0.64839473
   0.00000000  0.75000000  0.45053509
   0.25000000  0.00000000  0.45053509
   0.00000000  0.00000000  0.35160527
   0.25000000  0.75000000  0.35160527
   0.00000000  0.75000000  0.64839473
   0.25000000  0.00000000  0.64839473
   0.00000000  0.00000000  0.54946491
   0.25000000  0.75000000  0.54946491
   0.00000000  0.25000000  0.45053509
   0.25000000  0.50000000  0.45053509
   0.00000000  0.50000000  0.35160527
   0.25000000  0.25000000  0.35160527
   0.00000000  0.25000000  0.64839473
   0.25000000  0.50000000  0.64839473
   0.00000000  0.50000000  0.54946491
   0.25000000  0.25000000  0.54946491
   0.50000000  0.75000000  0.45053509
   0.75000000  0.00000000  0.45053509
   0.50000000  0.00000000  0.35160527
   0.75000000  0.75000000  0.35160527
   0.50000000  0.75000000  0.64839473
   0.75000000  0.00000000  0.64839473
   0.50000000  0.00000000  0.54946491
   0.75000000  0.75000000  0.54946491
   0.50000000  0.25000000  0.45053509
   0.75000000  0.50000000  0.45053509
   0.50000000  0.50000000  0.35160527
   0.75000000  0.25000000  0.35160527
   0.50000000  0.25000000  0.64839473
   0.75000000  0.50000000  0.64839473
   0.50000000  0.50000000  0.54946491
   0.75000000  0.25000000  0.54946491

 position of ions in cartesian coordinates  (Angst):
   0.00000000  6.33073849  7.50000000
   2.11024616  0.00000000  7.50000000
   0.00000000  0.00000000  9.61024616
   2.11024616  6.33073849  9.61024616
   0.00000000  6.33073849 11.72049233
   2.11024616  0.00000000 11.72049233
   0.00000000  0.00000000 13.83073849
   2.11024616  6.33073849 13.83073849
   0.00000000  2.11024616  7.50000000
   2.11024616  4.22049233  7.50000000
   0.00000000  4.22049233  9.61024616
   2.11024616  2.11024616  9.61024616
   0.00000000  2.11024616 11.72049233
   2.11024616  4.22049233 11.72049233
   0.00000000  4.22049233 13.83073849
   2.11024616  2.11024616 13.83073849
   4.22049233  6.33073849  7.50000000
   6.33073849  0.00000000  7.50000000
   4.22049233  0.00000000  9.61024616
   6.33073849  6.33073849  9.61024616
   4.22049233  6.33073849 11.72049233
   6.33073849  0.00000000 11.72049233
   4.22049233  0.00000000 13.83073849
   6.33073849  6.33073849 13.83073849
   4.22049233  2.11024616  7.50000000
   6.33073849  4.22049233  7.50000000
   4.22049233  4.22049233  9.61024616
   6.33073849  2.11024616  9.61024616
   4.22049233  2.11024616 11.72049233
   6.33073849  4.22049233 11.72049233
   4.22049233  4.22049233 13.83073849
   6.33073849  2.11024616 13.83073849
   0.00000000  6.33073849  9.61024616
   2.11024616  0.00000000  9.61024616
   0.00000000  0.00000000  7.50000000
   2.11024616  6.33073849  7.50000000
   0.00000000  6.33073849 13.83073849
   2.11024616  0.00000000 13.83073849
   0.00000000  0.00000000 11.72049233
   2.11024616  6.33073849 11.72049233
   0.00000000  2.11024616  9.61024616
   2.11024616  4.22049233  9.61024616
   0.00000000  4.22049233  7.50000000
   2.11024616  2.11024616  7.50000000
   0.00000000  2.11024616 13.83073849
   2.11024616  4.22049233 13.83073849
   0.00000000  4.22049233 11.72049233
   2.11024616  2.11024616 11.72049233
   4.22049233  6.33073849  9.61024616
   6.33073849  0.00000000  9.61024616
   4.22049233  0.00000000  7.50000000
   6.33073849  6.33073849  7.50000000
   4.22049233  6.33073849 13.83073849
   6.33073849  0.00000000 13.83073849
   4.22049233  0.00000000 11.72049233
   6.33073849  6.33073849 11.72049233
   4.22049233  2.11024616  9.61024616
   6.33073849  4.22049233  9.61024616
   4.22049233  4.22049233  7.50000000
   6.33073849  2.11024616  7.50000000
   4.22049233  2.11024616 13.83073849
   6.33073849  4.22049233 13.83073849
   4.22049233  4.22049233 11.72049233
   6.33073849  2.11024616 11.72049233



--------------------------------------------------------------------------------------------------------


 k-point   1 :   0.0000 0.0000 0.0000  plane waves:   50745
 k-point   2 :   0.5000 0.0000 0.0000  plane waves:   50798
 k-point   3 :   0.5000 0.5000 0.0000  plane waves:   50752

 maximum and minimum number of plane-waves per node :     12720    12632

 maximum number of plane-waves:     50798
 maximum index in each direction: 
   IXMAX=   16   IYMAX=   16   IZMAX=   42
   IXMIN=  -17   IYMIN=  -17   IZMIN=  -42


 parallel 3D FFT for wavefunctions:
    minimum data exchange during FFTs selected (reduces bandwidth)
 parallel 3D FFT for charge:
    minimum data exchange during FFTs selected (reduces bandwidth)


 total amount of memory used by VASP MPI-rank0    69719. kBytes
=======================================================================

   base      :      30000. kBytes
   nonl-proj :      20988. kBytes
   fftplans  :       3857. kBytes
   grid      :       5439. kBytes
   one-center:        129. kBytes
   wavefun   :       9306. kBytes

     INWAV:  cpu time      0.0001: real time      0.0001
 Broyden mixing: mesh for mixing (old mesh)
   NGX = 33   NGY = 33   NGZ = 85
  (NGX  =108   NGY  =108   NGZ  =256)
  gives a total of  92565 points

 initial charge density was supplied:
 charge density of overlapping atoms calculated
 number of electron     448.0000000 magnetization 
 keeping initial charge density in first step


--------------------------------------------------------------------------------------------------------


 Maximum index for augmentation-charges          331 (set IRDMAX)


--------------------------------------------------------------------------------------------------------


 First call to EWALD:  gamma=   0.154
 Maximum number of real-space cells 4x 4x 2
 Maximum number of reciprocal cells 2x 2x 5

    FEWALD:  cpu time      0.0057: real time      0.0057


--------------------------------------- Iteration      1(   1)  ---------------------------------------


    POTLOK:  cpu time      0.0347: real time      0.0353
    SETDIJ:  cpu time      0.1164: real time      0.1164
    TRIAL :  cpu time      4.6991: real time      4.7567
    CORREC:  cpu time      0.0012: real time      0.0011
    --------------------------------------------
      LOOP:  cpu time      4.8560: real time      4.9145

 eigenvalue-minimisations  :  2304
 total energy-change (2. order) : 0.4042524E+04  (-0.3021245E+05)
 number of electron     448.0000000 magnetization 
 augmentation part      448.0000000 magnetization 

 DIPCOR: dipole corrections for dipol
 direction  3 min pos     1,
 dipolmoment           0.000000      0.000000      0.000000 electrons x Angstroem
 Tr[quadrupol]     -5964.558405

 energy correction for charged system         0.000000 eV
 dipol+quadrupol energy correction           -0.000000 eV
 added-field ion interaction         -0.000000 eV  (added to PSCEN)


 Free energy of the ion-electron system (eV)
  ---------------------------------------------------
  alpha Z        PSCENC =       875.25928500
  Ewald energy   TEWEN  =    141423.51313752
  -Hartree energ DENC   =   -176920.26229712
  -exchange      EXHF   =         0.00000000
  -V(xc)+E(xc)   XCENC  =      1727.67400227
  PAW double counting   =     31885.32831381   -35670.53061943
  entropy T*S    EENTRO =        -0.02517383
  eigenvalues    EBANDS =     -6895.87393842
  atomic energy  EATOM  =     47617.44106709
  ---------------------------------------------------
  free energy    TOTEN  =      4042.52377690 eV

  energy without entropy =     4042.54895073  energy(sigma->0) =     4042.53636381


--------------------------------------------------------------------------------------------------------




--------------------------------------- Iteration      1(   2)  ---------------------------------------


    TRIAL :  cpu time      1.6981: real time      1.6988
    CORREC:  cpu time      0.0003: real time      0.0003
    --------------------------------------------
      LOOP:  cpu time      1.7025: real time      1.7132

 eigenvalue-minimisations  :  2304
 total energy-change (2. order) :-0.4154516E+04  (-0.4082568E+04)
 number of electron     448.0000000 magnetization 
 augmentation part      448.0000000 magnetization 

 DIPCOR: dipole corrections for dipol
 direction  3 min pos     1,
 dipolmoment           0.000000      0.000000      0.000000 electrons x Angstroem
 Tr[quadrupol]     -5964.558405

 energy correction for charged system         0.000000 eV
 dipol+quadrupol energy correction           -0.000000 eV
 added-field ion interaction         -0.000000 eV  (added to PSCEN)


 Free energy of the ion-electron system (eV)
  ---------------------------------------------------
  alpha Z        PSCENC =       875.25928500
  Ewald energy   TEWEN  =    141423.51313752
  -Hartree energ DENC   =   -176920.26229712
  -exchange      EXHF   =         0.00000000
  -V(xc)+E(xc)   XCENC  =      1727.67400227
  PAW double counting   =     31885.32831381   -35670.53061943
  entropy T*S    EENTRO =        -0.00000000
  eigenvalues    EBANDS =    -11050.41545812
  atomic energy  EATOM  =     47617.44106709
  ---------------------------------------------------
  free energy    TOTEN  =      -111.99256898 eV

  energy without entropy =     -111.99256898  energy(sigma->0) =     -111.99256898


--------------------------------------------------------------------------------------------------------




--------------------------------------- Iteration      1(   3)  ---------------------------------------


    TRIAL :  cpu time      1.7603: real time      1.7604
    CORREC:  cpu time      0.0003: real time      0.0003
    --------------------------------------------
      LOOP:  cpu time      1.7658: real time      1.7734

 eigenvalue-minimisations  :  2304
 total energy-change (2. order) :-0.2997257E+03  (-0.2977469E+03)
 number of electron     448.0000000 magnetization 
 augmentation part      448.0000000 magnetization 

 DIPCOR: dipole corrections for dipol
 direction  3 min pos     1,
 dipolmoment           0.000000      0.000000      0.000000 electrons x Angstroem
 Tr[quadrupol]     -5964.558405

 energy correction for charged system         0.000000 eV
 dipol+quadrupol energy correction           -0.000000 eV
 added-field ion interaction         -0.000000 eV  (added to PSCEN)


 Free energy of the ion-electron system (eV)
  ---------------------------------------------------
  alpha Z        PSCENC =       875.25928500
  Ewald energy   TEWEN  =    141423.51313752
  -Hartree energ DENC   =   -176920.26229712
  -exchange      EXHF   =         0.00000000
  -V(xc)+E(xc)   XCENC  =      1727.67400227
  PAW double counting   =     31885.32831381   -35670.53061943
  entropy T*S    EENTRO =        -0.00000000
  eigenvalues    EBANDS =    -11350.14112349
  atomic energy  EATOM  =     47617.44106709
  ---------------------------------------------------
  free energy    TOTEN  =      -411.71823435 eV

  energy without entropy =     -411.71823435  energy(sigma->0) =     -411.71823435


--------------------------------------------------------------------------------------------------------




--------------------------------------- Iteration      1(   4)  ---------------------------------------


    TRIAL :  cpu time      1.7525: real time      1.7526
    CORREC:  cpu time      0.0003: real time      0.0003
    --------------------------------------------
      LOOP:  cpu time      1.7651: real time      1.7657

 eigenvalue-minimisations  :  2304
 total energy-change (2. order) :-0.5575710E+01  (-0.5569767E+01)
 number of electron     448.0000000 magnetization 
 augmentation part      448.0000000 magnetization 

 DIPCOR: dipole corrections for dipol
 direction  3 min pos     1,
 dipolmoment           0.000000      0.000000      0.000000 electrons x Angstroem
 Tr[quadrupol]     -5964.558405

 energy correction for charged system         0.000000 eV
 dipol+quadrupol energy correction           -0.000000 eV
 added-field ion interaction         -0.000000 eV  (added to PSCEN)


 Free energy of the ion-electron system (eV)
  ---------------------------------------------------
  alpha Z        PSCENC =       875.25928500
  Ewald energy   TEWEN  =    141423.51313752
  -Hartree energ DENC   =   -176920.26229712
  -exchange      EXHF   =         0.00000000
  -V(xc)+E(xc)   XCENC  =      1727.67400227
  PAW double counting   =     31885.32831381   -35670.53061943
  entropy T*S    EENTRO =        -0.00000000
  eigenvalues    EBANDS =    -11355.71683324
  atomic energy  EATOM  =     47617.44106709
  ---------------------------------------------------
  free energy    TOTEN  =      -417.29394409 eV

  energy without entropy =     -417.29394409  energy(sigma->0) =     -417.29394409


--------------------------------------------------------------------------------------------------------




--------------------------------------- Iteration      1(   5)  ---------------------------------------


    TRIAL :  cpu time      1.9075: real time      1.9076
    CORREC:  cpu time      0.0003: real time      0.0003
    CHARGE:  cpu time      0.1140: real time      0.1142
    --------------------------------------------
      LOOP:  cpu time      2.0255: real time      2.0352

 eigenvalue-minimisations  :  2496
 total energy-change (2. order) :-0.7770661E-01  (-0.7770354E-01)
 number of electron     447.9999300 magnetization 
 augmentation part      159.0078888 magnetization 

 DIPCOR: dipole corrections for dipol
 direction  3 min pos     1,
 dipolmoment           0.000000      0.000000      0.000000 electrons x Angstroem
 Tr[quadrupol]     -5964.558405

 energy correction for charged system         0.000000 eV
 dipol+quadrupol energy correction           -0.000000 eV
 added-field ion interaction         -0.000000 eV  (added to PSCEN)


 Free energy of the ion-electron system (eV)
  ---------------------------------------------------
  alpha Z        PSCENC =       875.25928500
  Ewald energy   TEWEN  =    141423.51313752
  -Hartree energ DENC   =   -176920.26229712
  -exchange      EXHF   =         0.00000000
  -V(xc)+E(xc)   XCENC  =      1727.67400227
  PAW double counting   =     31885.32831381   -35670.53061943
  entropy T*S    EENTRO =        -0.00000000
  eigenvalues    EBANDS =    -11355.79453984
  atomic energy  EATOM  =     47617.44106709
  ---------------------------------------------------
  free energy    TOTEN  =      -417.37165070 eV

  energy without entropy =     -417.37165070  energy(sigma->0) =     -417.37165070


--------------------------------------------------------------------------------------------------------




--------------------------------------- Iteration      1(   6)  ---------------------------------------


    POTLOK:  cpu time      0.0261: real time      0.0261
    SETDIJ:  cpu time      0.1153: real time      0.1153
    TRIAL :  cpu time      0.5569: real time      0.5572
    CORREC:  cpu time      0.4480: real time      0.4482
    CHARGE:  cpu time      0.0988: real time      0.0988
    --------------------------------------------
      LOOP:  cpu time      1.2576: real time      1.2586

 eigenvalue-minimisations  :     0
 total energy-change (2. order) : 0.1726165E+03  (-0.9513172E+02)
 number of electron     447.9999227 magnetization 
 augmentation part      156.1625973 magnetization 

 DIPCOR: dipole corrections for dipol
 direction  3 min pos     1,
 dipolmoment           0.000000      0.000000     -0.013840 electrons x Angstroem
 Tr[quadrupol]     -6004.142578

 energy correction for charged system         0.000000 eV
 dipol+quadrupol energy correction           -0.000011 eV
 added-field ion interaction          0.000000 eV  (added to PSCEN)


 Free energy of the ion-electron system (eV)
  ---------------------------------------------------
  alpha Z        PSCENC =       875.25928500
  Ewald energy   TEWEN  =    141423.51313752
  -Hartree energ DENC   =   -180936.55603896
  -exchange      EXHF   =         0.00000000
  -V(xc)+E(xc)   XCENC  =      1849.64937471
  PAW double counting   =     36313.27413999   -40057.71398679
  entropy T*S    EENTRO =        -0.00000000
  eigenvalues    EBANDS =     -7329.62212240
  atomic energy  EATOM  =     47617.44106709
  ---------------------------------------------------
  free energy    TOTEN  =      -244.75514385 eV

  energy without entropy =     -244.75514385  energy(sigma->0) =     -244.75514385


--------------------------------------------------------------------------------------------------------




--------------------------------------- Iteration      1(   7)  ---------------------------------------


    POTLOK:  cpu time      0.0220: real time      0.0220
    SETDIJ:  cpu time      0.1161: real time      0.1161
    TRIAL :  cpu time      0.5058: real time      0.5058
    CORREC:  cpu time      0.4387: real time      0.4387
    CHARGE:  cpu time      0.0993: real time      0.0993
    --------------------------------------------
      LOOP:  cpu time      1.1865: real time      1.1951

 eigenvalue-minimisations  :     0
 total energy-change (2. order) :-0.9541110E+02  (-0.6931542E+01)
 number of electron     447.9999218 magnetization 
 augmentation part      154.2386449 magnetization 

 DIPCOR: dipole corrections for dipol
 direction  3 min pos     1,
 dipolmoment           0.000000      0.000000     -0.004551 electrons x Angstroem
 Tr[quadrupol]     -6008.291125

 energy correction for charged system         0.000000 eV
 dipol+quadrupol energy correction           -0.000001 eV
 added-field ion interaction          0.000000 eV  (added to PSCEN)


 Free energy of the ion-electron system (eV)
  ---------------------------------------------------
  alpha Z        PSCENC =       875.25927549
  Ewald energy   TEWEN  =    141423.51313752
  -Hartree energ DENC   =   -179046.42373956
  -exchange      EXHF   =         0.00000000
  -V(xc)+E(xc)   XCENC  =      1784.16787910
  PAW double counting   =     35255.05496274   -39069.07214165
  entropy T*S    EENTRO =        -0.00000000
  eigenvalues    EBANDS =     -9180.10667979
  atomic energy  EATOM  =     47617.44106709
  ---------------------------------------------------
  free energy    TOTEN  =      -340.16623905 eV

  energy without entropy =     -340.16623905  energy(sigma->0) =     -340.16623905


--------------------------------------------------------------------------------------------------------




--------------------------------------- Iteration      1(   8)  ---------------------------------------


    POTLOK:  cpu time      0.0216: real time      0.0216
    SETDIJ:  cpu time      0.1158: real time      0.1158
    TRIAL :  cpu time      0.5041: real time      0.5045
    CORREC:  cpu time      0.4389: real time      0.4390
    CHARGE:  cpu time      0.0990: real time      0.0990
    --------------------------------------------
      LOOP:  cpu time      1.1922: real time      1.1932

 eigenvalue-minimisations  :     0
 total energy-change (2. order) :-0.6948577E+01  (-0.4247666E+01)
 number of electron     447.9999204 magnetization 
 augmentation part      154.3508064 magnetization 

 DIPCOR: dipole corrections for dipol
 direction  3 min pos     1,
 dipolmoment           0.000000      0.000000      0.001168 electrons x Angstroem
 Tr[quadrupol]     -6006.116415

 energy correction for charged system         0.000000 eV
 dipol+quadrupol energy correction           -0.000000 eV
 added-field ion interaction         -0.000000 eV  (added to PSCEN)


 Free energy of the ion-electron system (eV)
  ---------------------------------------------------
  alpha Z        PSCENC =       875.25928486
  Ewald energy   TEWEN  =    141423.51313752
  -Hartree energ DENC   =   -178929.70244802
  -exchange      EXHF   =         0.00000000
  -V(xc)+E(xc)   XCENC  =      1774.19080897
  PAW double counting   =     35118.04711428   -38859.97356007
  entropy T*S    EENTRO =        -0.00000000
  eigenvalues    EBANDS =     -9365.89022106
  atomic energy  EATOM  =     47617.44106709
  ---------------------------------------------------
  free energy    TOTEN  =      -347.11481644 eV

  energy without entropy =     -347.11481644  energy(sigma->0) =     -347.11481644


--------------------------------------------------------------------------------------------------------




--------------------------------------- Iteration      1(   9)  ---------------------------------------


    POTLOK:  cpu time      0.0215: real time      0.0215
    SETDIJ:  cpu time      0.1164: real time      0.1164
    TRIAL :  cpu time      0.5027: real time      0.5027
    CORREC:  cpu time      0.4378: real time      0.4378
    CHARGE:  cpu time      0.0995: real time      0.0995
    --------------------------------------------
      LOOP:  cpu time      1.1904: real time      1.1908

 eigenvalue-minimisations  :     0
 total energy-change (2. order) :-0.4200130E+01  (-0.1848972E+01)
 number of electron     447.9999206 magnetization 
 augmentation part      154.4598418 magnetization 

 DIPCOR: dipole corrections for dipol
 direction  3 min pos     1,
 dipolmoment           0.000000      0.000000      0.001784 electrons x Angstroem
 Tr[quadrupol]     -6000.713226

 energy correction for charged system         0.000000 eV
 dipol+quadrupol energy correction           -0.000000 eV
 added-field ion interaction          0.000000 eV  (added to PSCEN)


 Free energy of the ion-electron system (eV)
  ---------------------------------------------------
  alpha Z        PSCENC =       875.25928463
  Ewald energy   TEWEN  =    141423.51313752
  -Hartree energ DENC   =   -178797.57976163
  -exchange      EXHF   =         0.00000000
  -V(xc)+E(xc)   XCENC  =      1773.69701996
  PAW double counting   =     35014.66593961   -38791.67636695
  entropy T*S    EENTRO =        -0.00000000
  eigenvalues    EBANDS =     -9466.63526670
  atomic energy  EATOM  =     47617.44106709
  ---------------------------------------------------
  free energy    TOTEN  =      -351.31494648 eV

  energy without entropy =     -351.31494648  energy(sigma->0) =     -351.31494648


--------------------------------------------------------------------------------------------------------




--------------------------------------- Iteration      1(  10)  ---------------------------------------


    POTLOK:  cpu time      0.0217: real time      0.0217
    SETDIJ:  cpu time      0.1158: real time      0.1158
    TRIAL :  cpu time      0.5036: real time      0.5037
    CORREC:  cpu time      0.4388: real time      0.4388
    CHARGE:  cpu time      0.0989: real time      0.0989
    --------------------------------------------
      LOOP:  cpu time      1.1848: real time      1.1918

 eigenvalue-minimisations  :     0
 total energy-change (2. order) :-0.1853112E+01  (-0.6617623E+00)
 number of electron     447.9999213 magnetization 
 augmentation part      154.4220238 magnetization 

 DIPCOR: dipole corrections for dipol
 direction  3 min pos     1,
 dipolmoment           0.000000      0.000000      0.000853 electrons x Angstroem
 Tr[quadrupol]     -5999.505945

 energy correction for charged system         0.000000 eV
 dipol+quadrupol energy correction           -0.000000 eV
 added-field ion interaction         -0.000000 eV  (added to PSCEN)


 Free energy of the ion-electron system (eV)
  ---------------------------------------------------
  alpha Z        PSCENC =       875.25928480
  Ewald energy   TEWEN  =    141423.51313752
  -Hartree energ DENC   =   -178654.54512734
  -exchange      EXHF   =         0.00000000
  -V(xc)+E(xc)   XCENC  =      1772.55165833
  PAW double counting   =     34900.80470962   -38690.31511656
  entropy T*S    EENTRO =        -0.00000000
  eigenvalues    EBANDS =     -9597.87767237
  atomic energy  EATOM  =     47617.44106709
  ---------------------------------------------------
  free energy    TOTEN  =      -353.16805890 eV

  energy without entropy =     -353.16805890  energy(sigma->0) =     -353.16805890


--------------------------------------------------------------------------------------------------------




--------------------------------------- Iteration      1(  11)  ---------------------------------------


    POTLOK:  cpu time      0.0218: real time      0.0218
    SETDIJ:  cpu time      0.1159: real time      0.1159
    TRIAL :  cpu time      0.5018: real time      0.5018
    CORREC:  cpu time      0.4389: real time      0.4389
    CHARGE:  cpu time      0.0990: real time      0.0990
    --------------------------------------------
      LOOP:  cpu time      1.1821: real time      1.1905

 eigenvalue-minimisations  :     0
 total energy-change (2. order) :-0.6622333E+00  (-0.2023538E+00)
 number of electron     447.9999216 magnetization 
 augmentation part      154.4834325 magnetization 

 DIPCOR: dipole corrections for dipol
 direction  3 min pos     1,
 dipolmoment           0.000000      0.000000      0.000950 electrons x Angstroem
 Tr[quadrupol]     -5999.576609

 energy correction for charged system         0.000000 eV
 dipol+quadrupol energy correction           -0.000000 eV
 added-field ion interaction         -0.000000 eV  (added to PSCEN)


 Free energy of the ion-electron system (eV)
  ---------------------------------------------------
  alpha Z        PSCENC =       875.25928495
  Ewald energy   TEWEN  =    141423.51313752
  -Hartree energ DENC   =   -178587.10346497
  -exchange      EXHF   =         0.00000000
  -V(xc)+E(xc)   XCENC  =      1771.42871235
  PAW double counting   =     34835.51589709   -38616.67263078
  entropy T*S    EENTRO =        -0.00000000
  eigenvalues    EBANDS =     -9673.21229550
  atomic energy  EATOM  =     47617.44106709
  ---------------------------------------------------
  free energy    TOTEN  =      -353.83029225 eV

  energy without entropy =     -353.83029225  energy(sigma->0) =     -353.83029225


--------------------------------------------------------------------------------------------------------




--------------------------------------- Iteration      1(  12)  ---------------------------------------


    POTLOK:  cpu time      0.0219: real time      0.0219
    SETDIJ:  cpu time      0.1157: real time      0.1157
    TRIAL :  cpu time      0.5045: real time      0.5045
    CORREC:  cpu time      0.4373: real time      0.4373
    CHARGE:  cpu time      0.0990: real time      0.0990
    --------------------------------------------
      LOOP:  cpu time      1.1821: real time      1.1927

 eigenvalue-minimisations  :     0
 total energy-change (2. order) :-0.2023522E+00  (-0.6185123E-01)
 number of electron     447.9999217 magnetization 
 augmentation part      154.5671447 magnetization 

 DIPCOR: dipole corrections for dipol
 direction  3 min pos     1,
 dipolmoment           0.000000      0.000000      0.000870 electrons x Angstroem
 Tr[quadrupol]     -5999.757766

 energy correction for charged system         0.000000 eV
 dipol+quadrupol energy correction           -0.000000 eV
 added-field ion interaction         -0.000000 eV  (added to PSCEN)


 Free energy of the ion-electron system (eV)
  ---------------------------------------------------
  alpha Z        PSCENC =       875.25928494
  Ewald energy   TEWEN  =    141423.51313752
  -Hartree energ DENC   =   -178585.53118601
  -exchange      EXHF   =         0.00000000
  -V(xc)+E(xc)   XCENC  =      1771.38602781
  PAW double counting   =     34819.44533265   -38598.25165727
  entropy T*S    EENTRO =        -0.00000000
  eigenvalues    EBANDS =     -9677.29465119
  atomic energy  EATOM  =     47617.44106709
  ---------------------------------------------------
  free energy    TOTEN  =      -354.03264445 eV

  energy without entropy =     -354.03264445  energy(sigma->0) =     -354.03264445


--------------------------------------------------------------------------------------------------------




--------------------------------------- Iteration      1(  13)  ---------------------------------------


    POTLOK:  cpu time      0.0218: real time      0.0218
    SETDIJ:  cpu time      0.1158: real time      0.1158
    TRIAL :  cpu time      0.5025: real time      0.5025
    CORREC:  cpu time      0.4374: real time      0.4375
    CHARGE:  cpu time      0.0989: real time      0.0989
    --------------------------------------------
      LOOP:  cpu time      1.1805: real time      1.1889

 eigenvalue-minimisations  :     0
 total energy-change (2. order) :-0.6186385E-01  (-0.2149888E-01)
 number of electron     447.9999217 magnetization 
 augmentation part      154.5913195 magnetization 

 DIPCOR: dipole corrections for dipol
 direction  3 min pos     1,
 dipolmoment           0.000000      0.000000      0.000508 electrons x Angstroem
 Tr[quadrupol]     -5999.865833

 energy correction for charged system         0.000000 eV
 dipol+quadrupol energy correction           -0.000000 eV
 added-field ion interaction         -0.000000 eV  (added to PSCEN)


 Free energy of the ion-electron system (eV)
  ---------------------------------------------------
  alpha Z        PSCENC =       875.25928495
  Ewald energy   TEWEN  =    141423.51313752
  -Hartree energ DENC   =   -178595.15917365
  -exchange      EXHF   =         0.00000000
  -V(xc)+E(xc)   XCENC  =      1771.55656730
  PAW double counting   =     34817.67048593   -38599.12221339
  entropy T*S    EENTRO =        -0.00000000
  eigenvalues    EBANDS =     -9665.25366407
  atomic energy  EATOM  =     47617.44106709
  ---------------------------------------------------
  free energy    TOTEN  =      -354.09450831 eV

  energy without entropy =     -354.09450831  energy(sigma->0) =     -354.09450831


--------------------------------------------------------------------------------------------------------




--------------------------------------- Iteration      1(  14)  ---------------------------------------


    POTLOK:  cpu time      0.0217: real time      0.0217
    SETDIJ:  cpu time      0.1157: real time      0.1157
    TRIAL :  cpu time      0.5031: real time      0.5031
    CORREC:  cpu time      0.4375: real time      0.4375
    CHARGE:  cpu time      0.0992: real time      0.0992
    --------------------------------------------
      LOOP:  cpu time      1.1813: real time      1.1901

 eigenvalue-minimisations  :     0
 total energy-change (2. order) :-0.2150775E-01  (-0.8971042E-02)
 number of electron     447.9999217 magnetization 
 augmentation part      154.5833060 magnetization 

 DIPCOR: dipole corrections for dipol
 direction  3 min pos     1,
 dipolmoment           0.000000      0.000000      0.000150 electrons x Angstroem
 Tr[quadrupol]     -6000.000799

 energy correction for charged system         0.000000 eV
 dipol+quadrupol energy correction           -0.000000 eV
 added-field ion interaction          0.000000 eV  (added to PSCEN)


 Free energy of the ion-electron system (eV)
  ---------------------------------------------------
  alpha Z        PSCENC =       875.25928499
  Ewald energy   TEWEN  =    141423.51313752
  -Hartree energ DENC   =   -178598.77136270
  -exchange      EXHF   =         0.00000000
  -V(xc)+E(xc)   XCENC  =      1771.55607936
  PAW double counting   =     34817.90562267   -38600.47878662
  entropy T*S    EENTRO =        -0.00000000
  eigenvalues    EBANDS =     -9660.54105837
  atomic energy  EATOM  =     47617.44106709
  ---------------------------------------------------
  free energy    TOTEN  =      -354.11601605 eV

  energy without entropy =     -354.11601605  energy(sigma->0) =     -354.11601605


--------------------------------------------------------------------------------------------------------




--------------------------------------- Iteration      1(  15)  ---------------------------------------


    POTLOK:  cpu time      0.0216: real time      0.0216
    SETDIJ:  cpu time      0.1159: real time      0.1159
    TRIAL :  cpu time      0.5025: real time      0.5025
    CORREC:  cpu time      0.4370: real time      0.4370
    CHARGE:  cpu time      0.0987: real time      0.0987
    --------------------------------------------
      LOOP:  cpu time      1.1890: real time      1.1895

 eigenvalue-minimisations  :     0
 total energy-change (2. order) :-0.8974241E-02  (-0.3884470E-02)
 number of electron     447.9999217 magnetization 
 augmentation part      154.5763476 magnetization 

 DIPCOR: dipole corrections for dipol
 direction  3 min pos     1,
 dipolmoment           0.000000      0.000000     -0.000022 electrons x Angstroem
 Tr[quadrupol]     -6000.143849

 energy correction for charged system         0.000000 eV
 dipol+quadrupol energy correction           -0.000000 eV
 added-field ion interaction          0.000000 eV  (added to PSCEN)


 Free energy of the ion-electron system (eV)
  ---------------------------------------------------
  alpha Z        PSCENC =       875.25928500
  Ewald energy   TEWEN  =    141423.51313752
  -Hartree energ DENC   =   -178604.15260091
  -exchange      EXHF   =         0.00000000
  -V(xc)+E(xc)   XCENC  =      1771.60287394
  PAW double counting   =     34822.05830924   -38604.05231670
  entropy T*S    EENTRO =        -0.00000000
  eigenvalues    EBANDS =     -9655.79474547
  atomic energy  EATOM  =     47617.44106709
  ---------------------------------------------------
  free energy    TOTEN  =      -354.12499029 eV

  energy without entropy =     -354.12499029  energy(sigma->0) =     -354.12499029


--------------------------------------------------------------------------------------------------------




--------------------------------------- Iteration      1(  16)  ---------------------------------------


    POTLOK:  cpu time      0.0218: real time      0.0218
    SETDIJ:  cpu time      0.1160: real time      0.1160
    TRIAL :  cpu time      0.5029: real time      0.5029
    CORREC:  cpu time      0.4371: real time      0.4371
    CHARGE:  cpu time      0.0983: real time      0.0989
    --------------------------------------------
      LOOP:  cpu time      1.1797: real time      1.1892

 eigenvalue-minimisations  :     0
 total energy-change (2. order) :-0.3883649E-02  (-0.1310438E-02)
 number of electron     447.9999217 magnetization 
 augmentation part      154.5745604 magnetization 

 DIPCOR: dipole corrections for dipol
 direction  3 min pos     1,
 dipolmoment           0.000000      0.000000     -0.000068 electrons x Angstroem
 Tr[quadrupol]     -6000.221953

 energy correction for charged system         0.000000 eV
 dipol+quadrupol energy correction           -0.000000 eV
 added-field ion interaction          0.000000 eV  (added to PSCEN)


 Free energy of the ion-electron system (eV)
  ---------------------------------------------------
  alpha Z        PSCENC =       875.25928500
  Ewald energy   TEWEN  =    141423.51313752
  -Hartree energ DENC   =   -178610.67872802
  -exchange      EXHF   =         0.00000000
  -V(xc)+E(xc)   XCENC  =      1771.70833187
  PAW double counting   =     34827.83766151   -38609.38928977
  entropy T*S    EENTRO =        -0.00000000
  eigenvalues    EBANDS =     -9649.82033915
  atomic energy  EATOM  =     47617.44106709
  ---------------------------------------------------
  free energy    TOTEN  =      -354.12887394 eV

  energy without entropy =     -354.12887394  energy(sigma->0) =     -354.12887394


--------------------------------------------------------------------------------------------------------




--------------------------------------- Iteration      1(  17)  ---------------------------------------


    POTLOK:  cpu time      0.0216: real time      0.0216
    SETDIJ:  cpu time      0.1161: real time      0.1161
    TRIAL :  cpu time      0.5452: real time      0.5452
    CORREC:  cpu time      0.4370: real time      0.4370
    CHARGE:  cpu time      0.0995: real time      0.0995
    --------------------------------------------
      LOOP:  cpu time      1.2320: real time      1.2323

 eigenvalue-minimisations  :     0
 total energy-change (2. order) :-0.1308272E-02  (-0.4473483E-03)
 number of electron     447.9999217 magnetization 
 augmentation part      154.5742277 magnetization 

 DIPCOR: dipole corrections for dipol
 direction  3 min pos     1,
 dipolmoment           0.000000      0.000000     -0.000073 electrons x Angstroem
 Tr[quadrupol]     -6000.234876

 energy correction for charged system         0.000000 eV
 dipol+quadrupol energy correction           -0.000000 eV
 added-field ion interaction          0.000000 eV  (added to PSCEN)


 Free energy of the ion-electron system (eV)
  ---------------------------------------------------
  alpha Z        PSCENC =       875.25928500
  Ewald energy   TEWEN  =    141423.51313752
  -Hartree energ DENC   =   -178612.67367004
  -exchange      EXHF   =         0.00000000
  -V(xc)+E(xc)   XCENC  =      1771.73195254
  PAW double counting   =     34830.68860317   -38612.36738165
  entropy T*S    EENTRO =        -0.00000000
  eigenvalues    EBANDS =     -9647.72317584
  atomic energy  EATOM  =     47617.44106709
  ---------------------------------------------------
  free energy    TOTEN  =      -354.13018222 eV

  energy without entropy =     -354.13018222  energy(sigma->0) =     -354.13018222


--------------------------------------------------------------------------------------------------------




--------------------------------------- Iteration      1(  18)  ---------------------------------------


    POTLOK:  cpu time      0.0218: real time      0.0218
    SETDIJ:  cpu time      0.1159: real time      0.1159
    TRIAL :  cpu time      0.5045: real time      0.5046
    CORREC:  cpu time      0.4451: real time      0.4451
    CHARGE:  cpu time      0.0989: real time      0.0989
    --------------------------------------------
      LOOP:  cpu time      1.1909: real time      1.1992

 eigenvalue-minimisations  :     0
 total energy-change (2. order) :-0.4460936E-03  (-0.1472513E-03)
 number of electron     447.9999217 magnetization 
 augmentation part      154.5745590 magnetization 

 DIPCOR: dipole corrections for dipol
 direction  3 min pos     1,
 dipolmoment           0.000000      0.000000     -0.000053 electrons x Angstroem
 Tr[quadrupol]     -6000.230468

 energy correction for charged system         0.000000 eV
 dipol+quadrupol energy correction           -0.000000 eV
 added-field ion interaction         -0.000000 eV  (added to PSCEN)


 Free energy of the ion-electron system (eV)
  ---------------------------------------------------
  alpha Z        PSCENC =       875.25928500
  Ewald energy   TEWEN  =    141423.51313752
  -Hartree energ DENC   =   -178612.82037909
  -exchange      EXHF   =         0.00000000
  -V(xc)+E(xc)   XCENC  =      1771.73331124
  PAW double counting   =     34832.29722108   -38614.05185617
  entropy T*S    EENTRO =        -0.00000000
  eigenvalues    EBANDS =     -9647.50241498
  atomic energy  EATOM  =     47617.44106709
  ---------------------------------------------------
  free energy    TOTEN  =      -354.13062831 eV

  energy without entropy =     -354.13062831  energy(sigma->0) =     -354.13062831


--------------------------------------------------------------------------------------------------------




--------------------------------------- Iteration      1(  19)  ---------------------------------------


    POTLOK:  cpu time      0.0217: real time      0.0217
    SETDIJ:  cpu time      0.1162: real time      0.1163
    TRIAL :  cpu time      0.5140: real time      0.5141
    CORREC:  cpu time      0.4370: real time      0.4370
    CHARGE:  cpu time      0.0994: real time      0.0994
    --------------------------------------------
      LOOP:  cpu time      1.2017: real time      1.2023

 eigenvalue-minimisations  :     0
 total energy-change (2. order) :-0.1467302E-03  (-0.5346542E-04)
 number of electron     447.9999217 magnetization 
 augmentation part      154.5741751 magnetization 

 DIPCOR: dipole corrections for dipol
 direction  3 min pos     1,
 dipolmoment           0.000000      0.000000     -0.000022 electrons x Angstroem
 Tr[quadrupol]     -6000.218003

 energy correction for charged system         0.000000 eV
 dipol+quadrupol energy correction           -0.000000 eV
 added-field ion interaction          0.000000 eV  (added to PSCEN)


 Free energy of the ion-electron system (eV)
  ---------------------------------------------------
  alpha Z        PSCENC =       875.25928500
  Ewald energy   TEWEN  =    141423.51313752
  -Hartree energ DENC   =   -178612.78818385
  -exchange      EXHF   =         0.00000000
  -V(xc)+E(xc)   XCENC  =      1771.74621682
  PAW double counting   =     34833.09041185   -38614.79314427
  entropy T*S    EENTRO =        -0.00000000
  eigenvalues    EBANDS =     -9647.59956520
  atomic energy  EATOM  =     47617.44106709
  ---------------------------------------------------
  free energy    TOTEN  =      -354.13077504 eV

  energy without entropy =     -354.13077504  energy(sigma->0) =     -354.13077504


--------------------------------------------------------------------------------------------------------




--------------------------------------- Iteration      1(  20)  ---------------------------------------


    POTLOK:  cpu time      0.0215: real time      0.0215
    SETDIJ:  cpu time      0.1164: real time      0.1164
    TRIAL :  cpu time      0.5011: real time      0.5012
    CORREC:  cpu time      0.4376: real time      0.4376
    CHARGE:  cpu time      0.0988: real time      0.0988
    --------------------------------------------
      LOOP:  cpu time      1.1793: real time      1.1884

 eigenvalue-minimisations  :     0
 total energy-change (2. order) :-0.5288862E-04  (-0.1741916E-04)
 number of electron     447.9999217 magnetization 
 augmentation part      154.5738492 magnetization 

 DIPCOR: dipole corrections for dipol
 direction  3 min pos     1,
 dipolmoment           0.000000      0.000000     -0.000001 electrons x Angstroem
 Tr[quadrupol]     -6000.205795

 energy correction for charged system         0.000000 eV
 dipol+quadrupol energy correction           -0.000000 eV
 added-field ion interaction          0.000000 eV  (added to PSCEN)


 Free energy of the ion-electron system (eV)
  ---------------------------------------------------
  alpha Z        PSCENC =       875.25928500
  Ewald energy   TEWEN  =    141423.51313752
  -Hartree energ DENC   =   -178612.20329907
  -exchange      EXHF   =         0.00000000
  -V(xc)+E(xc)   XCENC  =      1771.74286826
  PAW double counting   =     34832.66107286   -38614.33513972
  entropy T*S    EENTRO =        -0.00000000
  eigenvalues    EBANDS =     -9648.20981987
  atomic energy  EATOM  =     47617.44106709
  ---------------------------------------------------
  free energy    TOTEN  =      -354.13082793 eV

  energy without entropy =     -354.13082793  energy(sigma->0) =     -354.13082793


--------------------------------------------------------------------------------------------------------




--------------------------------------- Iteration      1(  21)  ---------------------------------------


    POTLOK:  cpu time      0.0216: real time      0.0216
    SETDIJ:  cpu time      0.1162: real time      0.1163
    TRIAL :  cpu time      0.5021: real time      0.5021
    CORREC:  cpu time      0.4380: real time      0.4381
    CHARGE:  cpu time      0.0992: real time      0.0992
    --------------------------------------------
      LOOP:  cpu time      1.1896: real time      1.1902

 eigenvalue-minimisations  :     0
 total energy-change (2. order) :-0.1712904E-04  (-0.5196099E-05)
 number of electron     447.9999217 magnetization 
 augmentation part      154.5740125 magnetization 

 DIPCOR: dipole corrections for dipol
 direction  3 min pos     1,
 dipolmoment           0.000000      0.000000      0.000004 electrons x Angstroem
 Tr[quadrupol]     -6000.201594

 energy correction for charged system         0.000000 eV
 dipol+quadrupol energy correction           -0.000000 eV
 added-field ion interaction          0.000000 eV  (added to PSCEN)


 Free energy of the ion-electron system (eV)
  ---------------------------------------------------
  alpha Z        PSCENC =       875.25928500
  Ewald energy   TEWEN  =    141423.51313752
  -Hartree energ DENC   =   -178611.75546921
  -exchange      EXHF   =         0.00000000
  -V(xc)+E(xc)   XCENC  =      1771.73502607
  PAW double counting   =     34832.02020336   -38613.69902753
  entropy T*S    EENTRO =        -0.00000000
  eigenvalues    EBANDS =     -9648.64506736
  atomic energy  EATOM  =     47617.44106709
  ---------------------------------------------------
  free energy    TOTEN  =      -354.13084506 eV

  energy without entropy =     -354.13084506  energy(sigma->0) =     -354.13084506


--------------------------------------------------------------------------------------------------------




[...]
    306       9.2229      0.00000
    307       9.2232      0.00000
    308       9.2241      0.00000
    309       9.3063      0.00000
    310       9.3069      0.00000
    311       9.3093      0.00000
    312       9.3097      0.00000
    313       9.5931      0.00000
    314       9.5931      0.00000
    315       9.5931      0.00000
    316       9.5931      0.00000
    317      10.3150      0.00000
    318      10.3320      0.00000
    319      10.3568      0.00000
    320      10.3652      0.00000


--------------------------------------------------------------------------------------------------------


 soft charge-density along one line, spin component           1
         0         1         2         3         4         5         6         7         8         9
 total charge-density along one line

 pseudopotential strength for first ion, spin component:           1
-51.677  -0.000   0.000   7.196   0.000  -0.000  -0.000   0.000
 -0.000 -51.733   0.000   0.000   7.226  -0.000  -0.034   0.084
  0.000   0.000 -51.677  -0.000  -0.000   7.196  -0.000   0.000
  7.196   0.000  -0.000   4.272  -0.000   0.000   0.000   0.000
  0.000   7.226  -0.000  -0.000   4.287   0.000  -0.007   0.014
 -0.000  -0.000   7.196   0.000   0.000   4.272  -0.000   0.000
 -0.000  -0.034  -0.000   0.000  -0.007  -0.000   2.997 -11.089
  0.000   0.084   0.000   0.000   0.014   0.000 -11.089  46.324
  0.000   0.000   0.000  -0.000   0.000  -0.000  -0.000   0.000
  0.009   0.000   0.000  -0.011  -0.000   0.000   0.000  -0.000
 -0.000   0.008  -0.000   0.000  -0.025   0.000   0.013  -0.025
  0.000   0.000   0.009   0.000  -0.000  -0.011  -0.000   0.000
 -0.000   0.000   0.000   0.000   0.000  -0.000  -0.000   0.000
 total augmentation occupancy for first ion, spin component:           1
  2.001  -0.000  -0.000  -0.008  -0.000  -0.000   0.000   0.000   0.000  -0.008   0.000  -0.000  -0.000
 -0.000   2.002  -0.000   0.000  -0.002  -0.000   0.001   0.005  -0.000   0.000  -0.014  -0.000  -0.000
 -0.000  -0.000   2.001   0.000  -0.000  -0.008   0.000  -0.000  -0.000   0.000  -0.000  -0.008   0.000
 -0.008   0.000   0.000   0.076  -0.000   0.000   0.000   0.000  -0.000   0.001   0.000   0.000  -0.000
 -0.000  -0.002  -0.000  -0.000   0.047   0.000   0.040   0.001   0.000  -0.000   0.026   0.000   0.000
 -0.000  -0.000  -0.008   0.000   0.000   0.076   0.000   0.000  -0.000   0.000  -0.000   0.001   0.000
  0.000   0.001   0.000   0.000   0.040   0.000   0.816   0.014   0.000   0.000  -0.040  -0.000  -0.000
  0.000   0.005  -0.000   0.000   0.001   0.000   0.014   0.000  -0.000  -0.000  -0.001   0.000  -0.000
  0.000  -0.000  -0.000  -0.000   0.000  -0.000   0.000  -0.000   0.013   0.000   0.000  -0.000  -0.000
 -0.008   0.000   0.000   0.001  -0.000   0.000   0.000  -0.000   0.000   0.011  -0.000  -0.000   0.000
  0.000  -0.014  -0.000   0.000   0.026  -0.000  -0.040  -0.001   0.000  -0.000   0.031   0.000  -0.000
 -0.000  -0.000  -0.008   0.000   0.000   0.001  -0.000   0.000  -0.000  -0.000   0.000   0.011  -0.000
 -0.000  -0.000   0.000  -0.000   0.000   0.000  -0.000  -0.000  -0.000   0.000  -0.000  -0.000   0.052


------------------------ aborting loop because EDIFF is reached ----------------------------------------


    FORLOC:  cpu time      0.0021: real time      0.0021
    FORNL :  cpu time      0.2864: real time      0.2864
    STRESS:  cpu time      0.8788: real time      0.8788
    FORCOR:  cpu time      0.0193: real time      0.0193
    OFIELD:  cpu time      0.0000: real time      0.0000
    FORVDW:  cpu time      4.4462: real time      4.4467

  FORCE on cell =-STRESS in cart. coord.  units (eV):
  Direction    XX          YY          ZZ          XY          YZ          ZX
  --------------------------------------------------------------------------------------
  Alpha Z   875.25928   875.25928   875.25928
  Ewald  161089.19585161089.19585************    -0.00000    -0.00000     0.00000
  Hartree171163.35789171163.35789************    -0.00000    -0.00000    -0.00000
  E(xc)   -2465.27652 -2465.27652 -2473.58892    -0.00000     0.00000     0.00000
  Local  ************************342517.37593    -0.00000    -0.00000    -0.00000
  n-local -2794.68672 -2795.50382 -2816.17078    -0.00001    -0.00000    -0.00000
  augment  1046.60440  1046.60440  1036.89645    -0.00000    -0.00000     0.00000
  Kinetic  7307.94335  7310.55088  7349.43925     0.00000     0.00000    -0.00000
  Fock        0.00000     0.00000     0.00000     0.00000     0.00000     0.00000
  vdW       -21.48208   -21.48211   -16.14407     0.00000     0.00000     0.00000
  -------------------------------------------------------------------------------------
  Total     -26.42590   -26.42590    -1.84339     0.00000     0.00000     0.00000
  in kB     -27.85790   -27.85790    -1.94329     0.00000     0.00000     0.00000
  external pressure =      -19.22 kB  Pullay stress =        0.00 kB


 VOLUME and BASIS-vectors are now :
 -----------------------------------------------------------------------------
  energy-cutoff  :      600.00
  volume of cell :     1519.82
      direct lattice vectors                 reciprocal lattice vectors
     8.440984654  0.000000000  0.000000000     0.118469591  0.000000000  0.000000000
     0.000000000  8.440984654  0.000000000     0.000000000  0.118469591  0.000000000
     0.000000000  0.000000000 21.330738491     0.000000000  0.000000000  0.046880702

  length of vectors
     8.440984654  8.440984654 21.330738491     0.118469591  0.118469591  0.046880702


 FORCES acting on ions:
    Electron-Ion                     Ewald-Force                    Non-Local-Force
 -----------------------------------------------------------------------------------------------
   -.424E-13 0.177E-11 0.207E+04   0.742E-13 0.515E-13 -.206E+04   -.414E-24 -.207E-24 -.716E+01
   0.340E-12 0.222E-12 0.207E+04   -.288E-13 0.364E-13 -.206E+04   -.185E-23 0.207E-24 -.716E+01
   -.529E-13 0.192E-12 0.683E+03   -.150E-10 0.150E-10 -.683E+03   0.414E-23 0.000E+00 0.523E+00
   0.415E-12 0.157E-11 0.683E+03   0.150E-10 -.151E-10 -.683E+03   0.402E-23 0.207E-23 0.523E+00
   -.534E-13 0.936E-12 -.690E+03   -.497E-13 0.274E-13 0.691E+03   -.232E-22 -.993E-23 -.222E+00
   0.381E-12 -.141E-12 -.690E+03   0.933E-13 0.391E-13 0.691E+03   0.331E-23 -.993E-23 -.222E+00
   -.209E-13 -.545E-12 -.205E+04   -.462E-13 -.711E-14 0.204E+04   0.364E-22 0.463E-22 0.609E+01
   0.321E-12 0.232E-12 -.205E+04   -.120E-12 -.493E-13 0.204E+04   -.165E-23 -.331E-23 0.609E+01
   -.395E-13 0.704E-12 0.207E+04   0.145E-11 -.151E-10 -.206E+04   0.000E+00 0.310E-24 -.716E+01
   0.335E-12 0.122E-11 0.207E+04   -.144E-11 0.151E-10 -.206E+04   -.414E-24 0.000E+00 -.716E+01
   -.431E-13 0.127E-11 0.683E+03   -.166E-10 0.426E-13 -.683E+03   0.112E-22 -.331E-23 0.523E+00
   0.403E-12 0.710E-12 0.683E+03   0.165E-10 0.347E-14 -.683E+03   0.248E-23 -.424E-23 0.523E+00
   -.517E-13 0.572E-12 -.690E+03   0.853E-13 -.513E-13 0.691E+03   0.000E+00 -.248E-23 -.222E+00
   0.382E-12 0.128E-11 -.690E+03   0.559E-13 -.249E-13 0.691E+03   -.132E-22 0.331E-23 -.222E+00
   -.280E-13 0.286E-12 -.205E+04   -.110E-12 0.355E-13 0.204E+04   0.285E-22 0.000E+00 0.609E+01
   0.320E-12 -.249E-12 -.205E+04   -.985E-13 -.726E-14 0.204E+04   0.331E-23 -.232E-22 0.609E+01
   0.899E-12 0.314E-11 0.207E+04   -.165E-10 0.527E-13 -.206E+04   -.207E-24 -.414E-24 -.716E+01
   0.118E-11 0.215E-12 0.207E+04   0.166E-10 0.613E-13 -.206E+04   0.517E-25 0.414E-24 -.716E+01
   0.827E-12 0.205E-12 0.683E+03   0.141E-11 0.150E-10 -.683E+03   -.827E-23 -.165E-23 0.523E+00
   0.116E-11 0.201E-11 0.683E+03   -.146E-11 -.150E-10 -.683E+03   0.827E-23 0.290E-23 0.523E+00
   0.839E-12 0.230E-11 -.690E+03   0.266E-13 0.310E-13 0.691E+03   0.331E-23 0.993E-23 -.222E+00
   0.115E-11 -.138E-12 -.690E+03   -.151E-13 0.568E-13 0.691E+03   0.248E-23 0.132E-22 -.222E+00
   0.921E-12 -.552E-12 -.205E+04   -.178E-12 0.213E-13 0.204E+04   0.662E-22 -.141E-22 0.609E+01
   0.121E-11 0.124E-11 -.205E+04   -.181E-12 -.494E-13 0.204E+04   0.447E-22 0.298E-22 0.609E+01
   0.897E-12 -.721E-12 0.207E+04   -.151E-10 -.151E-10 -.206E+04   0.000E+00 0.129E-24 -.716E+01
   0.119E-11 0.808E-12 0.207E+04   0.150E-10 0.151E-10 -.206E+04   -.258E-24 0.207E-24 -.716E+01
   0.828E-12 0.143E-11 0.683E+03   0.355E-14 0.533E-13 -.683E+03   0.116E-22 -.496E-23 0.523E+00
   0.118E-11 0.865E-12 0.683E+03   -.321E-13 -.214E-13 -.683E+03   -.910E-23 -.414E-24 0.523E+00
   0.836E-12 0.842E-12 -.690E+03   0.000E+00 -.281E-13 0.691E+03   0.165E-23 -.108E-22 -.222E+00
   0.115E-11 0.194E-11 -.690E+03   -.286E-13 0.000E+00 0.691E+03   -.116E-22 -.662E-23 -.222E+00
   0.928E-12 0.119E-11 -.205E+04   -.153E-12 0.639E-13 0.204E+04   0.496E-23 -.199E-22 0.609E+01
   0.122E-11 0.140E-11 -.205E+04   -.167E-12 -.731E-14 0.204E+04   0.248E-23 0.215E-22 0.609E+01
   -.647E-13 0.678E-12 0.512E+03   0.933E-13 0.456E-13 -.512E+03   -.517E-25 0.827E-24 -.102E+00
   0.147E-12 -.286E-13 0.512E+03   0.331E-13 0.124E-13 -.512E+03   -.227E-23 0.331E-23 -.102E+00
   -.480E-13 -.209E-12 0.155E+04   0.851E-11 -.843E-11 -.156E+04   0.269E-23 0.414E-24 0.341E+01
   0.815E-13 0.148E-12 0.155E+04   -.844E-11 0.847E-11 -.156E+04   -.517E-25 0.207E-23 0.341E+01
   -.305E-13 0.862E-12 -.156E+04   0.175E-12 0.333E-13 0.156E+04   -.207E-22 -.165E-23 -.494E+01
   0.730E-13 0.418E-12 -.156E+04   0.175E-12 0.338E-13 0.156E+04   -.182E-22 -.124E-23 -.494E+01
   -.600E-13 0.808E-13 -.512E+03   0.853E-13 0.426E-13 0.512E+03   -.132E-22 0.199E-22 0.260E+00
   0.164E-12 0.726E-12 -.512E+03   0.997E-13 -.430E-13 0.512E+03   0.331E-23 0.993E-23 0.260E+00
   -.635E-13 0.389E-12 0.512E+03   -.760E-12 0.841E-11 -.512E+03   0.414E-24 0.827E-24 -.102E+00
   0.133E-12 0.638E-12 0.512E+03   0.831E-12 -.844E-11 -.512E+03   0.000E+00 -.248E-23 -.102E+00
   -.386E-13 0.290E-12 0.155E+04   0.931E-11 0.466E-13 -.156E+04   -.620E-24 -.145E-23 0.341E+01
   0.793E-13 0.121E-12 0.155E+04   -.929E-11 -.192E-13 -.156E+04   0.827E-24 -.414E-24 0.341E+01
   -.357E-13 0.566E-12 -.156E+04   0.121E-12 0.187E-13 0.156E+04   -.331E-23 -.124E-22 -.494E+01
   0.872E-13 0.572E-12 -.156E+04   0.143E-12 0.178E-13 0.156E+04   0.827E-23 0.000E+00 -.494E+01
   -.553E-13 0.613E-12 -.512E+03   0.142E-13 -.213E-13 0.512E+03   -.149E-22 -.993E-23 0.260E+00
   0.134E-12 0.448E-12 -.512E+03   0.441E-13 0.175E-16 0.512E+03   0.629E-22 -.331E-23 0.260E+00
   0.298E-12 0.269E-11 0.512E+03   0.924E-11 0.144E-13 -.512E+03   0.290E-23 0.393E-23 -.102E+00
   0.465E-12 -.370E-13 0.512E+03   -.926E-11 -.426E-13 -.512E+03   0.000E+00 0.155E-23 -.102E+00
   0.359E-12 -.202E-12 0.155E+04   -.836E-12 -.848E-11 -.156E+04   0.207E-24 0.827E-24 0.341E+01
   0.469E-12 -.216E-11 0.155E+04   0.779E-12 0.842E-11 -.156E+04   -.248E-23 0.672E-24 0.341E+01
   0.384E-12 0.444E-12 -.156E+04   0.103E-12 -.604E-14 0.156E+04   0.331E-23 0.132E-22 -.494E+01
   0.453E-12 0.391E-12 -.156E+04   0.746E-13 0.213E-13 0.156E+04   -.496E-23 0.827E-24 -.494E+01
   0.320E-12 0.455E-13 -.512E+03   0.142E-13 -.711E-14 0.512E+03   0.265E-22 0.199E-22 0.260E+00
   0.423E-12 0.285E-11 -.512E+03   -.139E-13 -.914E-13 0.512E+03   0.827E-22 0.116E-22 0.260E+00
   0.300E-12 -.278E-11 0.512E+03   0.838E-11 0.837E-11 -.512E+03   -.165E-23 0.207E-23 -.102E+00
   0.472E-12 0.132E-11 0.512E+03   -.851E-11 -.846E-11 -.512E+03   0.827E-24 -.414E-24 -.102E+00
   0.352E-12 0.189E-12 0.155E+04   -.768E-13 0.577E-14 -.156E+04   -.290E-23 0.235E-23 0.341E+01
   0.468E-12 0.990E-12 0.155E+04   -.661E-13 -.342E-13 -.156E+04   -.414E-24 -.103E-23 0.341E+01
   0.383E-12 0.127E-11 -.156E+04   0.995E-13 -.704E-14 0.156E+04   -.331E-23 -.703E-23 -.494E+01
   0.430E-12 0.104E-11 -.156E+04   0.703E-14 -.355E-13 0.156E+04   -.496E-23 0.827E-23 -.494E+01
   0.315E-12 0.367E-12 -.512E+03   0.213E-13 -.497E-13 0.512E+03   0.112E-21 -.662E-23 0.260E+00
   0.450E-12 -.172E-11 -.512E+03   -.993E-13 -.497E-13 0.512E+03   0.182E-22 0.232E-22 0.260E+00
 -----------------------------------------------------------------------------------------------
   0.264E-10 0.380E-10 0.171E+02   -.107E-12 -.117E-12 -.109E-10   0.400E-21 0.926E-22 -.171E+02


 POSITION                                       TOTAL-FORCE (eV/Angst)
 -----------------------------------------------------------------------------------
      0.00000      6.33074      7.50000         0.000000     -0.000000      0.339682
      2.11025      0.00000      7.50000        -0.000000      0.000000      0.339682
      0.00000      0.00000      9.61025        -0.000000     -0.000000      0.075951
      2.11025      6.33074      9.61025        -0.000000     -0.000000      0.075951
      0.00000      6.33074     11.73556         0.000000      0.000000      0.003093
      2.11025     -0.00000     11.73556        -0.000000     -0.000000      0.003093
     -0.00000      0.00000     13.84069        -0.000000     -0.000000     -0.000129
      2.11025      6.33074     13.84069         0.000000      0.000000     -0.000129
      0.00000      2.11025      7.50000         0.000000     -0.000000      0.339682
      2.11025      4.22049      7.50000         0.000000     -0.000000      0.339682
      0.00000      4.22049      9.61025        -0.000000     -0.000000      0.075951
      2.11025      2.11025      9.61025        -0.000000     -0.000000      0.075951
      0.00000      2.11025     11.73556        -0.000000      0.000000      0.003093
      2.11025      4.22049     11.73556         0.000000     -0.000000      0.003093
     -0.00000      4.22049     13.84069        -0.000000      0.000000     -0.000129
      2.11025      2.11025     13.84069         0.000000     -0.000000     -0.000129
      4.22049      6.33074      7.50000         0.000000      0.000000      0.339682
      6.33074      0.00000      7.50000         0.000000     -0.000000      0.339682
      4.22049      0.00000      9.61025        -0.000000      0.000000      0.075951
      6.33074      6.33074      9.61025         0.000000      0.000000      0.075951
      4.22049      6.33074     11.73556        -0.000000      0.000000      0.003093
      6.33074      0.00000     11.73556        -0.000000      0.000000      0.003093
      4.22049     -0.00000     13.84069        -0.000000      0.000000     -0.000129
      6.33074      6.33074     13.84069        -0.000000     -0.000000     -0.000129
      4.22049      2.11025      7.50000         0.000000      0.000000      0.339682
      6.33074      4.22049      7.50000        -0.000000     -0.000000      0.339682
      4.22049      4.22049      9.61025         0.000000      0.000000      0.075951
      6.33074      2.11025      9.61025        -0.000000     -0.000000      0.075951
      4.22049      2.11025     11.73556        -0.000000     -0.000000      0.003093
      6.33074      4.22049     11.73556         0.000000      0.000000      0.003093
      4.22049      4.22049     13.84069         0.000000     -0.000000     -0.000129
      6.33074      2.11025     13.84069        -0.000000      0.000000     -0.000129
      0.00000      6.33074      9.61025         0.000000     -0.000000      0.083605
      2.11025      0.00000      9.61025        -0.000000     -0.000000      0.083605
      0.00000      0.00000      7.50000        -0.000000     -0.000000     -0.501282
      2.11025      6.33074      7.50000         0.000000     -0.000000     -0.501282
     -0.00000      6.33074     13.88645         0.000000      0.000000     -0.002086
      2.11025      0.00000     13.88645         0.000000     -0.000000     -0.002086
      0.00000      0.00000     11.72957         0.000000      0.000000      0.001165
      2.11025      6.33074     11.72957        -0.000000      0.000000      0.001165
      0.00000      2.11025      9.61025        -0.000000     -0.000000      0.083605
      2.11025      4.22049      9.61025        -0.000000     -0.000000      0.083605
      0.00000      4.22049      7.50000        -0.000000     -0.000000     -0.501282
      2.11025      2.11025      7.50000         0.000000     -0.000000     -0.501282
      0.00000      2.11025     13.88645         0.000000     -0.000000     -0.002086
      2.11025      4.22049     13.88645         0.000000      0.000000     -0.002086
      0.00000      4.22049     11.72957         0.000000     -0.000000      0.001165
      2.11025      2.11025     11.72957        -0.000000      0.000000      0.001165
      4.22049      6.33074      9.61025        -0.000000      0.000000      0.083605
      6.33074      0.00000      9.61025        -0.000000     -0.000000      0.083605
      4.22049      0.00000      7.50000        -0.000000      0.000000     -0.501282
      6.33074      6.33074      7.50000        -0.000000     -0.000000     -0.501282
      4.22049      6.33074     13.88645        -0.000000      0.000000     -0.002086
      6.33074     -0.00000     13.88645        -0.000000      0.000000     -0.002086
      4.22049     -0.00000     11.72957        -0.000000      0.000000      0.001165
      6.33074      6.33074     11.72957        -0.000000      0.000000      0.001165
      4.22049      2.11025      9.61025        -0.000000     -0.000000      0.083605
      6.33074      4.22049      9.61025        -0.000000      0.000000      0.083605
      4.22049      4.22049      7.50000         0.000000     -0.000000     -0.501282
      6.33074      2.11025      7.50000        -0.000000      0.000000     -0.501282
      4.22049      2.11025     13.88645        -0.000000      0.000000     -0.002086
      6.33074      4.22049     13.88645        -0.000000     -0.000000     -0.002086
      4.22049      4.22049     11.72957        -0.000000     -0.000000      0.001165
      6.33074      2.11025     11.72957         0.000000      0.000000      0.001165
 -----------------------------------------------------------------------------------
    total drift:                                0.000000      0.000000     -0.037126


--------------------------------------------------------------------------------------------------------



  FREE ENERGIE OF THE ION-ELECTRON SYSTEM (eV)
  ---------------------------------------------------
  free  energy   TOTEN  =      -371.29565497 eV

  energy  without entropy=     -371.29565497  energy(sigma->0) =     -371.29565497

 d Force = 0.8222147E-04[-0.371E-05, 0.168E-03]  d Energy = 0.8350149E-04-0.128E-05
 d Force =-0.6367561E+01[-0.637E+01,-0.637E+01]  d Ewald  =-0.6367561E+01 0.590E-07


--------------------------------------------------------------------------------------------------------


    POTLOK:  cpu time      0.2160: real time      0.2160


--------------------------------------------------------------------------------------------------------




--------------------------------------------------------------------------------------------------------


  
 reached required accuracy - stopping structural energy minimisation
     LOOP+:  cpu time     16.7766: real time     16.8401
    4ORBIT:  cpu time      0.0000: real time      0.0000

 total amount of memory used by VASP MPI-rank0    69719. kBytes
=======================================================================

   base      :      30000. kBytes
   nonl-proj :      20988. kBytes
   fftplans  :       3857. kBytes
   grid      :       5439. kBytes
   one-center:        129. kBytes
   wavefun   :       9306. kBytes

  
  
 General timing and accounting informations for this job:
 ========================================================
  
                  Total CPU time used (sec):      313.986
                            User time (sec):      311.431
                          System time (sec):        2.556
                         Elapsed time (sec):      319.168
  
                   Maximum memory used (kb):      170552.
                   Average memory used (kb):          N/A
  
                          Minor page faults:        33487
                          Major page faults:           49
                 Voluntary context switches:        13073
