 vasp.6.3.0 20Jan22 (build Apr  1 2022 16:44:48) complex                         
 executed on        HPECrayEX_GCC date 2023.05.17  13:43:29
 running  512 mpi-ranks, with    1 threads/rank
 distrk:  each k-point on  256 cores,    2 groups
 distr:  one band on NCORE=   4 cores,   64 groups


--------------------------------------------------------------------------------------------------------


 INCAR:
   SYSTEM = MgO-rocksalt
   ISMEAR = 0
   SIGMA = 0.05
   EDIFF = 1E-6
   ALGO = ALL
   ISTART = 0
   IBRION = -1
   NSW = 0
   ISYM = 2
   ISIF = 2
   EDIFFG = -0.01
   DIPOL = 0.5 0.5 0.5
   IDIPOL = 3
   LDIPOL = .TRUE.
   GGA = PE
   IVDW = 1
   VDW_C6 = 1.75 0.70 0.63 0.70
   VDW_R0 = 1.452 1.342 1.243 1.342
   ENCUT = 600
   PREC = Normal
   LASPH = .TRUE.
   LREAL = .FALSE.
   ISPIN = 1
   NELM = 200
   NELMIN = 8
   NCORE = 4
   KPAR = 2
   LWAVE = .FALSE.
   LCHARG = .FALSE.

 POTCAR:    PAW_PBE C 08Apr2002                   
 POTCAR:    PAW_PBE O 08Apr2002                   
 POTCAR:    PAW_PBE Mg_pv 13Apr2007               
 POTCAR:    PAW_PBE O 08Apr2002                   
 POTCAR:    PAW_PBE C 08Apr2002                   
   SHA256 =  253f7b50bb8d59471dbedb8285d89021f4a42ed1a2c5d38a03a736e69125dd95 C/POTCAR              
   COPYR  = (c) Copyright 08Apr2002 Georg Kresse                                                    
   COPYR  = This file is part of the software VASP. Any use, copying, and all other rights are regul
   COPYR  = If you do not have a valid VASP license, you may not use, copy or distribute this file. 
   VRHFIN =C: s2p2                                                                                  
   LEXCH  = PE                                                                                      
   EATOM  =   147.1560 eV,   10.8157 Ry                                                             
                                                                                                    
   TITEL  = PAW_PBE C 08Apr2002                                                                     
   LULTRA =        F    use ultrasoft PP ?                                                          
   IUNSCR =        1    unscreen: 0-lin 1-nonlin 2-no                                               
   RPACOR =    1.200    partial core radius                                                         
   POMASS =   12.011; ZVAL   =    4.000    mass and valenz                                          
   RCORE  =    1.500    outmost cutoff radius                                                       
   RWIGS  =    1.630; RWIGS  =    0.863    wigner-seitz radius (au A)                               
   ENMAX  =  400.000; ENMIN  =  300.000 eV                                                          
   ICORE  =        2    local potential                                                             
   LCOR   =        T    correct aug charges                                                         
   LPAW   =        T    paw PP                                                                      
   EAUG   =  644.873                                                                                
   DEXC   =    0.000                                                                                
   RMAX   =    1.529    core radius for proj-oper                                                   
   RAUG   =    1.300    factor for augmentation sphere                                              
   RDEP   =    1.501    radius for radial grids                                                     
   RDEPT  =    1.300    core radius for aug-charge                                                  
                                                                                                    
   Atomic configuration                                                                             
    4 entries                                                                                       
     n  l   j            E        occ.                                                              
     1  0  0.50      -273.3789   2.0000                                                             
     2  0  0.50       -13.7508   2.0000                                                             
     2  1  0.50        -5.2854   2.0000                                                             
     3  2  1.50        -5.4423   0.0000                                                             
   Description                                                                                      
     l       E           TYP  RCUT    TYP  RCUT                                                     
     0    -13.7508458     23  1.200                                                                 
     0     -8.2022199     23  1.200                                                                 
     1     -5.2854383     23  1.500                                                                 
     1     34.0145650     23  1.500                                                                 
     2     -5.4423304      7  1.500                                                                 
  local pseudopotential read in
  partial core-charges read in
  partial kinetic energy density read in
  atomic valenz-charges read in
  non local Contribution for L=           0  read in
    real space projection operators read in
  non local Contribution for L=           0  read in
    real space projection operators read in
  non local Contribution for L=           1  read in
    real space projection operators read in
  non local Contribution for L=           1  read in
    real space projection operators read in
    PAW grid and wavefunctions read in

   number of l-projection  operators is LMAX  =           4
   number of lm-projection operators is LMMAX =           8

 POTCAR:    PAW_PBE O 08Apr2002                   
   SHA256 =  818f92134a0a090dccd8ba1447fa70422a3b330e708bb4f08108d8ae51209ddf O/POTCAR              
   COPYR  = (c) Copyright 08Apr2002 Georg Kresse                                                    
   COPYR  = This file is part of the software VASP. Any use, copying, and all other rights are regul
   COPYR  = If you do not have a valid VASP license, you may not use, copy or distribute this file. 
   VRHFIN =O: s2p4                                                                                  
   LEXCH  = PE                                                                                      
   EATOM  =   432.3788 eV,   31.7789 Ry                                                             
                                                                                                    
   TITEL  = PAW_PBE O 08Apr2002                                                                     
   LULTRA =        F    use ultrasoft PP ?                                                          
   IUNSCR =        1    unscreen: 0-lin 1-nonlin 2-no                                               
   RPACOR =    1.200    partial core radius                                                         
   POMASS =   16.000; ZVAL   =    6.000    mass and valenz                                          
   RCORE  =    1.520    outmost cutoff radius                                                       
   RWIGS  =    1.550; RWIGS  =    0.820    wigner-seitz radius (au A)                               
   ENMAX  =  400.000; ENMIN  =  300.000 eV                                                          
   ICORE  =        2    local potential                                                             
   LCOR   =        T    correct aug charges                                                         
   LPAW   =        T    paw PP                                                                      
   EAUG   =  605.392                                                                                
   DEXC   =    0.000                                                                                
   RMAX   =    1.553    core radius for proj-oper                                                   
   RAUG   =    1.300    factor for augmentation sphere                                              
   RDEP   =    1.550    radius for radial grids                                                     
   RDEPT  =    1.329    core radius for aug-charge                                                  
                                                                                                    
   Atomic configuration                                                                             
    4 entries                                                                                       
     n  l   j            E        occ.                                                              
     1  0  0.50      -514.6923   2.0000                                                             
     2  0  0.50       -23.9615   2.0000                                                             
     2  1  0.50        -9.0305   4.0000                                                             
     3  2  1.50        -9.5241   0.0000                                                             
   Description                                                                                      
     l       E           TYP  RCUT    TYP  RCUT                                                     
     0    -23.9615318     23  1.200                                                                 
     0     -9.5240782     23  1.200                                                                 
     1     -9.0304911     23  1.520                                                                 
     1      8.1634956     23  1.520                                                                 
     2     -9.5240782      7  1.500                                                                 
  local pseudopotential read in
  partial core-charges read in
  partial kinetic energy density read in
  kinetic energy density of atom read in
  atomic valenz-charges read in
  non local Contribution for L=           0  read in
    real space projection operators read in
  non local Contribution for L=           0  read in
    real space projection operators read in
  non local Contribution for L=           1  read in
    real space projection operators read in
  non local Contribution for L=           1  read in
    real space projection operators read in
    PAW grid and wavefunctions read in

   number of l-projection  operators is LMAX  =           4
   number of lm-projection operators is LMMAX =           8

 POTCAR:    PAW_PBE Mg_pv 13Apr2007               
   SHA256 =  f474ac0dd33840b9ae76c01d57fea79fdf77cdfbb07d5ade72c65f83c709b62b Mg_pv/POTCAR          
   COPYR  = (c) Copyright 13Apr2007 Georg Kresse                                                    
   COPYR  = This file is part of the software VASP. Any use, copying, and all other rights are regul
   COPYR  = If you do not have a valid VASP license, you may not use, copy or distribute this file. 
   VRHFIN =Mg: p6s2                                                                                 
   LEXCH  = PE                                                                                      
   EATOM  =  1056.7344 eV,   77.6678 Ry                                                             
                                                                                                    
   TITEL  = PAW_PBE Mg_pv 13Apr2007                                                                 
   LULTRA =        F    use ultrasoft PP ?                                                          
   IUNSCR =        1    unscreen: 0-lin 1-nonlin 2-no                                               
   RPACOR =    1.500    partial core radius                                                         
   POMASS =   24.305; ZVAL   =    8.000    mass and valenz                                          
   RCORE  =    2.000    outmost cutoff radius                                                       
   RWIGS  =    2.000; RWIGS  =    1.058    wigner-seitz radius (au A)                               
   ENMAX  =  403.929; ENMIN  =  302.947 eV                                                          
   RCLOC  =    1.506    cutoff for local pot                                                        
   LCOR   =        T    correct aug charges                                                         
   LPAW   =        T    paw PP                                                                      
   EAUG   =  758.780                                                                                
   DEXC   =    0.000                                                                                
   RMAX   =    2.045    core radius for proj-oper                                                   
   RAUG   =    1.300    factor for augmentation sphere                                              
   RDEP   =    2.025    radius for radial grids                                                     
   RDEPT  =    1.557    core radius for aug-charge                                                  
                                                                                                    
   Atomic configuration                                                                             
    5 entries                                                                                       
     n  l   j            E        occ.                                                              
     1  0  0.50     -1259.6230   2.0000                                                             
     2  0  0.50       -79.8442   2.0000                                                             
     2  1  1.50       -46.6121   6.0000                                                             
     3  0  0.50        -4.7055   2.0000                                                             
     3  2  1.50        -1.3606   0.0000                                                             
   Description                                                                                      
     l       E           TYP  RCUT    TYP  RCUT                                                     
     1    -46.6121073     23  1.600                                                                 
     1      2.7211652     23  1.600                                                                 
     0     -4.7054661     23  2.000                                                                 
     0     61.2262170     23  2.000                                                                 
     2     -1.3605826     23  2.000                                                                 
  local pseudopotential read in
  partial core-charges read in
  partial kinetic energy density read in
  atomic valenz-charges read in
  non local Contribution for L=           1  read in
    real space projection operators read in
  non local Contribution for L=           1  read in
    real space projection operators read in
  non local Contribution for L=           0  read in
    real space projection operators read in
  non local Contribution for L=           0  read in
    real space projection operators read in
  non local Contribution for L=           2  read in
    real space projection operators read in
    PAW grid and wavefunctions read in

   number of l-projection  operators is LMAX  =           5
   number of lm-projection operators is LMMAX =          13

 POTCAR:    PAW_PBE O 08Apr2002                   
   SHA256 =  818f92134a0a090dccd8ba1447fa70422a3b330e708bb4f08108d8ae51209ddf O/POTCAR              
   COPYR  = (c) Copyright 08Apr2002 Georg Kresse                                                    
   COPYR  = This file is part of the software VASP. Any use, copying, and all other rights are regul
   COPYR  = If you do not have a valid VASP license, you may not use, copy or distribute this file. 
   VRHFIN =O: s2p4                                                                                  
   LEXCH  = PE                                                                                      
   EATOM  =   432.3788 eV,   31.7789 Ry                                                             
                                                                                                    
   TITEL  = PAW_PBE O 08Apr2002                                                                     
   LULTRA =        F    use ultrasoft PP ?                                                          
   IUNSCR =        1    unscreen: 0-lin 1-nonlin 2-no                                               
   RPACOR =    1.200    partial core radius                                                         
   POMASS =   16.000; ZVAL   =    6.000    mass and valenz                                          
   RCORE  =    1.520    outmost cutoff radius                                                       
   RWIGS  =    1.550; RWIGS  =    0.820    wigner-seitz radius (au A)                               
   ENMAX  =  400.000; ENMIN  =  300.000 eV                                                          
   ICORE  =        2    local potential                                                             
   LCOR   =        T    correct aug charges                                                         
   LPAW   =        T    paw PP                                                                      
   EAUG   =  605.392                                                                                
   DEXC   =    0.000                                                                                
   RMAX   =    1.553    core radius for proj-oper                                                   
   RAUG   =    1.300    factor for augmentation sphere                                              
   RDEP   =    1.550    radius for radial grids                                                     
   RDEPT  =    1.329    core radius for aug-charge                                                  
                                                                                                    
   Atomic configuration                                                                             
    4 entries                                                                                       
     n  l   j            E        occ.                                                              
     1  0  0.50      -514.6923   2.0000                                                             
     2  0  0.50       -23.9615   2.0000                                                             
     2  1  0.50        -9.0305   4.0000                                                             
     3  2  1.50        -9.5241   0.0000                                                             
   Description                                                                                      
     l       E           TYP  RCUT    TYP  RCUT                                                     
     0    -23.9615318     23  1.200                                                                 
     0     -9.5240782     23  1.200                                                                 
     1     -9.0304911     23  1.520                                                                 
     1      8.1634956     23  1.520                                                                 
     2     -9.5240782      7  1.500                                                                 
  local pseudopotential read in
  partial core-charges read in
  partial kinetic energy density read in
  kinetic energy density of atom read in
  atomic valenz-charges read in
  non local Contribution for L=           0  read in
    real space projection operators read in
  non local Contribution for L=           0  read in
    real space projection operators read in
  non local Contribution for L=           1  read in
    real space projection operators read in
  non local Contribution for L=           1  read in
    real space projection operators read in
    PAW grid and wavefunctions read in

   number of l-projection  operators is LMAX  =           4
   number of lm-projection operators is LMMAX =           8

 -----------------------------------------------------------------------------
|                                                                             |
|               ----> ADVICE to this user running VASP <----                  |
|                                                                             |
|     You have a (more or less) 'large supercell' and for larger cells it     |
|     might be more efficient to use real-space projection operators.         |
|     Therefore, try LREAL= Auto in the INCAR file.                           |
|     Mind: For very accurate calculation, you might also keep the            |
|     reciprocal projection scheme (i.e. LREAL=.FALSE.).                      |
|                                                                             |
 -----------------------------------------------------------------------------

  PAW_PBE C 08Apr2002                   :
 energy of atom  1       EATOM= -147.1560
 kinetic energy error for atom=    0.0057 (will be added to EATOM!!)
  PAW_PBE O 08Apr2002                   :
 energy of atom  2       EATOM= -432.3788
 kinetic energy error for atom=    0.0168 (will be added to EATOM!!)
  PAW_PBE Mg_pv 13Apr2007               :
 energy of atom  3       EATOM=-1056.7344
 kinetic energy error for atom=    0.0221 (will be added to EATOM!!)
  PAW_PBE O 08Apr2002                   :
 energy of atom  4       EATOM= -432.3788
 kinetic energy error for atom=    0.0168 (will be added to EATOM!!)


 POSCAR:  C  O Mg  O
  positions in direct lattice
  No initial velocities read in
 exchange correlation table for  LEXCH =        8
   RHO(1)=    0.500       N(1)  =     2000
   RHO(2)=  100.500       N(2)  =     4000



--------------------------------------------------------------------------------------------------------


 ion  position               nearest neighbor table
   1  0.500  0.500  0.772-   2 1.15
   2  0.500  0.500  0.825-   1 1.15
   3  0.000  0.750  0.352-  35 2.11  37 2.11  38 2.11  45 2.11  54 2.11
   4  0.250  0.000  0.352-  36 2.11  37 2.11  38 2.11  46 2.11  53 2.11
   5  0.000  0.000  0.451-  37 2.11  36 2.11  35 2.11  43 2.11  52 2.11  41 2.12
   6  0.250  0.750  0.451-  38 2.11  36 2.11  35 2.11  44 2.11  51 2.11  42 2.12
   7  0.000  0.750  0.550-  49 2.11  42 2.11  58 2.11  41 2.11  35 2.12  39 2.15
   8  0.250  0.000  0.550-  57 2.11  50 2.11  42 2.11  41 2.11  36 2.12  40 2.15
   9  0.000  0.000  0.649-  39 2.11  40 2.11  47 2.11  56 2.11  41 2.11
  10  0.250  0.750  0.649-  42 2.11  40 2.11  39 2.11  48 2.11  55 2.11
  11  0.000  0.250  0.352-  43 2.11  37 2.11  45 2.11  46 2.11  62 2.11
  12  0.250  0.500  0.352-  44 2.11  38 2.11  45 2.11  46 2.11  61 2.11
  13  0.000  0.500  0.451-  45 2.11  43 2.11  44 2.11  35 2.11  60 2.11  49 2.12
  14  0.250  0.250  0.451-  46 2.11  43 2.11  44 2.11  36 2.11  59 2.11  50 2.12
  15  0.000  0.250  0.550-  49 2.11  50 2.11  66 2.11  41 2.11  43 2.12  47 2.15
  16  0.250  0.500  0.550-  65 2.11  50 2.11  42 2.11  49 2.11  44 2.13  48 2.15
  17  0.000  0.500  0.649-  48 2.10  64 2.10  49 2.11  47 2.11  39 2.11
  18  0.250  0.250  0.649-  50 2.11  47 2.11  40 2.11  48 2.11  63 2.11
  19  0.500  0.750  0.352-  51 2.11  38 2.11  53 2.11  54 2.11  61 2.11
  20  0.750  0.000  0.352-  52 2.11  37 2.11  53 2.11  54 2.11  62 2.11
  21  0.500  0.000  0.451-  53 2.11  51 2.11  52 2.11  36 2.11  59 2.11  57 2.12
  22  0.750  0.750  0.451-  54 2.11  51 2.11  52 2.11  35 2.11  60 2.11  58 2.12
  23  0.500  0.750  0.550-  65 2.11  58 2.11  42 2.11  57 2.11  51 2.13  55 2.15
  24  0.750  0.000  0.550-  57 2.11  58 2.11  66 2.11  41 2.11  52 2.12  56 2.15
  25  0.500  0.000  0.649-  55 2.10  63 2.10  57 2.11  40 2.11  56 2.11
  26  0.750  0.750  0.649-  58 2.11  56 2.11  39 2.11  55 2.11  64 2.11
  27  0.500  0.250  0.352-  59 2.11  53 2.11  46 2.11  61 2.11  62 2.11
  28  0.750  0.500  0.352-  60 2.11  54 2.11  45 2.11  61 2.11  62 2.11
  29  0.500  0.500  0.451-  61 2.11  51 2.11  59 2.11  60 2.11  44 2.11  65 2.13
  30  0.750  0.250  0.451-  62 2.11  52 2.11  59 2.11  60 2.11  43 2.11  66 2.12
  31  0.500  0.250  0.550-  65 2.11  50 2.11  66 2.11  57 2.11  59 2.13  63 2.15
  32  0.750  0.500  0.550-  65 2.11  58 2.11  66 2.11  49 2.11  60 2.13  64 2.15
  33  0.500  0.500  0.651-  48 2.12  55 2.12  63 2.12  64 2.12  65 2.14
  34  0.750  0.250  0.649-  66 2.11  56 2.11  47 2.11  64 2.11  63 2.11
  35  0.000  0.750  0.451-   3 2.11   5 2.11   6 2.11  13 2.11  22 2.11   7 2.12
  36  0.250  0.000  0.451-   4 2.11   5 2.11   6 2.11  14 2.11  21 2.11   8 2.12
  37  0.000  0.000  0.352-   5 2.11   4 2.11   3 2.11  11 2.11  20 2.11
  38  0.250  0.750  0.352-   6 2.11   4 2.11   3 2.11  12 2.11  19 2.11
  39  0.000  0.750  0.651-   9 2.11  10 2.11  26 2.11  17 2.11   7 2.15
  40  0.250  0.000  0.651-   9 2.11  10 2.11  18 2.11  25 2.11   8 2.15
  41  0.000  0.000  0.550-   9 2.11   8 2.11   7 2.11  15 2.11  24 2.11   5 2.12
  42  0.250  0.750  0.550-  10 2.11   8 2.11   7 2.11  16 2.11  23 2.11   6 2.12
  43  0.000  0.250  0.451-  11 2.11   5 2.11  13 2.11  14 2.11  30 2.11  15 2.12
  44  0.250  0.500  0.451-  12 2.11   6 2.11  13 2.11  14 2.11  29 2.11  16 2.13
  45  0.000  0.500  0.352-  13 2.11  11 2.11  12 2.11   3 2.11  28 2.11
  46  0.250  0.250  0.352-  14 2.11  11 2.11  12 2.11   4 2.11  27 2.11
  47  0.000  0.250  0.651-   9 2.11  18 2.11  34 2.11  17 2.11  15 2.15
  48  0.249  0.500  0.651-  17 2.10  10 2.11  18 2.11  33 2.12  16 2.15
  49  0.000  0.500  0.550-  17 2.11  15 2.11   7 2.11  16 2.11  32 2.11  13 2.12
  50  0.250  0.250  0.550-  18 2.11  15 2.11   8 2.11  16 2.11  31 2.11  14 2.12
  51  0.500  0.750  0.451-  19 2.11   6 2.11  21 2.11  22 2.11  29 2.11  23 2.13
  52  0.750  0.000  0.451-  20 2.11   5 2.11  21 2.11  22 2.11  30 2.11  24 2.12
  53  0.500  0.000  0.352-  21 2.11  19 2.11  20 2.11   4 2.11  27 2.11
  54  0.750  0.750  0.352-  22 2.11  19 2.11  20 2.11   3 2.11  28 2.11
  55  0.500  0.751  0.651-  25 2.10  10 2.11  26 2.11  33 2.12  23 2.15
  56  0.750  0.000  0.651-   9 2.11  26 2.11  34 2.11  25 2.11  24 2.15
  57  0.500  0.000  0.550-  25 2.11  24 2.11   8 2.11  23 2.11  31 2.11  21 2.12
  58  0.750  0.750  0.550-  26 2.11  24 2.11   7 2.11  32 2.11  23 2.11  22 2.12
  59  0.500  0.250  0.451-  27 2.11  21 2.11  14 2.11  29 2.11  30 2.11  31 2.13
  60  0.750  0.500  0.451-  28 2.11  22 2.11  13 2.11  29 2.11  30 2.11  32 2.13
  61  0.500  0.500  0.352-  29 2.11  19 2.11  27 2.11  28 2.11  12 2.11
  62  0.750  0.250  0.352-  30 2.11  20 2.11  27 2.11  28 2.11  11 2.11
  63  0.500  0.249  0.651-  25 2.10  18 2.11  34 2.11  33 2.12  31 2.15
  64  0.751  0.500  0.651-  17 2.10  26 2.11  34 2.11  33 2.12  32 2.15
  65  0.500  0.500  0.550-  16 2.11  23 2.11  31 2.11  32 2.11  29 2.13  33 2.14
  66  0.750  0.250  0.550-  34 2.11  24 2.11  15 2.11  32 2.11  31 2.11  30 2.12

  LATTYP: Found a simple tetragonal cell.
 ALAT       =     8.4409846542
 C/A-ratio  =     2.5270438657
  
  Lattice vectors:
  
 A1 = (   8.4409846542,   0.0000000000,   0.0000000000)
 A2 = (   0.0000000000,   8.4409846542,   0.0000000000)
 A3 = (   0.0000000000,   0.0000000000,  21.3307384906)


Analysis of symmetry for initial positions (statically):
=====================================================================
 Subroutine PRICEL returns:
 Original cell was already a primitive cell.
 

 Routine SETGRP: Setting up the symmetry group for a 
 simple tetragonal supercell.


 Subroutine GETGRP returns: Found  8 space group operations
 (whereof  8 operations were pure point group operations)
 out of a pool of 16 trial point group operations.


The static configuration has the point symmetry C_4v.


Analysis of symmetry for dynamics (positions and initial velocities):
=====================================================================
 Subroutine PRICEL returns:
 Original cell was already a primitive cell.
 

 Routine SETGRP: Setting up the symmetry group for a 
 simple tetragonal supercell.


 Subroutine GETGRP returns: Found  8 space group operations
 (whereof  8 operations were pure point group operations)
 out of a pool of 16 trial point group operations.


The dynamic configuration has the point symmetry C_4v.


 Subroutine INISYM returns: Found  8 space group operations
 (whereof  8 operations are pure point group operations),
 and found     1 'primitive' translations


----------------------------------------------------------------------------------------

                                     Primitive cell                                     

  volume of cell :    1519.8199

  direct lattice vectors                    reciprocal lattice vectors
     8.440984654  0.000000000  0.000000000     0.118469591  0.000000000  0.000000000
     0.000000000  8.440984654  0.000000000     0.000000000  0.118469591  0.000000000
     0.000000000  0.000000000 21.330738491     0.000000000  0.000000000  0.046880702

  length of vectors
     8.440984654  8.440984654 21.330738491     0.118469591  0.118469591  0.046880702

  position of ions in fractional coordinates (direct lattice)
     0.500000000  0.500000000  0.771569172
     0.500000000  0.500000000  0.825332890
     0.000000000  0.750000000  0.351605267
     0.250000000  0.000000000  0.351605267
     0.000000000  0.000000000  0.450535089
     0.250000000  0.750000000  0.450535089
     0.000000000  0.749939268  0.550083239
     0.250060732  0.000000000  0.550083239
     0.000000000  0.000000000  0.648745309
     0.249858327  0.750141673  0.648569547
     0.000000000  0.250000000  0.351605267
     0.250000000  0.500000000  0.351605267
     0.000000000  0.500000000  0.450535089
     0.250000000  0.250000000  0.450535089
     0.000000000  0.250060732  0.550083239
     0.250378379  0.500000000  0.550219524
     0.000000000  0.500000000  0.648615280
     0.249858327  0.249858327  0.648569547
     0.500000000  0.750000000  0.351605267
     0.750000000  0.000000000  0.351605267
     0.500000000  0.000000000  0.450535089
     0.750000000  0.750000000  0.450535089
     0.500000000  0.749621621  0.550219524
     0.749939268  0.000000000  0.550083239
     0.500000000  0.000000000  0.648615280
     0.750141673  0.750141673  0.648569547
     0.500000000  0.250000000  0.351605267
     0.750000000  0.500000000  0.351605267
     0.500000000  0.500000000  0.450535089
     0.750000000  0.250000000  0.450535089
     0.500000000  0.250378379  0.550219524
     0.749621621  0.500000000  0.550219524
     0.500000000  0.500000000  0.650616960
     0.750141673  0.249858327  0.648569547
     0.000000000  0.750000000  0.450535089
     0.250000000  0.000000000  0.450535089
     0.000000000  0.000000000  0.351605267
     0.250000000  0.750000000  0.351605267
     0.000000000  0.750218533  0.650979255
     0.249781467  0.000000000  0.650979255
     0.000000000  0.000000000  0.549809890
     0.249945770  0.750054230  0.549859113
     0.000000000  0.250000000  0.450535089
     0.250000000  0.500000000  0.450535089
     0.000000000  0.500000000  0.351605267
     0.250000000  0.250000000  0.351605267
     0.000000000  0.249781467  0.650979255
     0.248822710  0.500000000  0.650882872
     0.000000000  0.500000000  0.549762666
     0.249945770  0.249945770  0.549859113
     0.500000000  0.750000000  0.450535089
     0.750000000  0.000000000  0.450535089
     0.500000000  0.000000000  0.351605267
     0.750000000  0.750000000  0.351605267
     0.500000000  0.751177290  0.650882872
     0.750218533  0.000000000  0.650979255
     0.500000000  0.000000000  0.549762666
     0.750054230  0.750054230  0.549859113
     0.500000000  0.250000000  0.450535089
     0.750000000  0.500000000  0.450535089
     0.500000000  0.500000000  0.351605267
     0.750000000  0.250000000  0.351605267
     0.500000000  0.248822710  0.650882872
     0.751177290  0.500000000  0.650882872
     0.500000000  0.500000000  0.550231357
     0.750054230  0.249945770  0.549859113

  ion indices of the primitive-cell ions
   primitive index   ion index
                 1           1
                 2           2
                 3           3
                 4           4
                 5           5
                 6           6
                 7           7
                 8           8
                 9           9
                10          10
                11          11
                12          12
                13          13
                14          14
                15          15
                16          16
                17          17
                18          18
                19          19
                20          20
                21          21
                22          22
                23          23
                24          24
                25          25
                26          26
                27          27
                28          28
                29          29
                30          30
                31          31
                32          32
                33          33
                34          34
                35          35
                36          36
                37          37
                38          38
                39          39
                40          40
                41          41
                42          42
                43          43
                44          44
                45          45
                46          46
                47          47
                48          48
                49          49
                50          50
                51          51
                52          52
                53          53
                54          54
                55          55
                56          56
                57          57
                58          58
                59          59
                60          60
                61          61
                62          62
                63          63
                64          64
                65          65
                66          66

----------------------------------------------------------------------------------------



 KPOINTS: pymatgen v2020.8.13 with grid density = 

Automatic generation of k-mesh.
 Grid dimensions read from file:
 generate k-points for:    2    2    1

 Generating k-lattice:

  Cartesian coordinates                     Fractional coordinates (reciprocal lattice)
     0.059234796  0.000000000  0.000000000     0.500000000  0.000000000  0.000000000
     0.000000000  0.059234796  0.000000000     0.000000000  0.500000000  0.000000000
     0.000000000  0.000000000  0.046880702     0.000000000  0.000000000  1.000000000

  Length of vectors
     0.059234796  0.059234796  0.046880702

  Shift w.r.t. Gamma in fractional coordinates (k-lattice)
     0.000000000  0.000000000  0.000000000

 
 Subroutine IBZKPT returns following result:
 ===========================================
 
 Found      3 irreducible k-points:
 
 Following reciprocal coordinates:
            Coordinates               Weight
  0.000000  0.000000  0.000000      1.000000
  0.500000  0.000000  0.000000      2.000000
  0.500000  0.500000  0.000000      1.000000
 
 Following cartesian coordinates:
            Coordinates               Weight
  0.000000  0.000000  0.000000      1.000000
  0.059235  0.000000  0.000000      2.000000
  0.059235  0.059235  0.000000      1.000000
 


--------------------------------------------------------------------------------------------------------




 Dimension of arrays:
   k-points           NKPTS =      3   k-points in BZ     NKDIM =      3   number of bands    NBANDS=    320
   number of dos      NEDOS =    301   number of ions     NIONS =     66
   non local maximal  LDIM  =      5   non local SUM 2l+1 LMDIM =     13
   total plane-waves  NPLWV = 373248
   max r-space proj   IRMAX =      1   max aug-charges    IRDMAX=   5039
   dimension x,y,z NGX =    54 NGY =   54 NGZ =  128
   dimension x,y,z NGXF=   108 NGYF=  108 NGZF=  256
   support grid    NGXF=   108 NGYF=  108 NGZF=  256
   ions per type =               1   1  32  32
   NGX,Y,Z   is equivalent  to a cutoff of  10.64, 10.64,  9.98 a.u.
   NGXF,Y,Z  is equivalent  to a cutoff of  21.27, 21.27, 19.95 a.u.

 SYSTEM =  MgO-rocksalt                            
 POSCAR =   C  O Mg  O                             

 Startparameter for this run:
   NWRITE =      2    write-flag & timer
   PREC   = normal    normal or accurate (medium, high low for compatibility)
   ISTART =      0    job   : 0-new  1-cont  2-samecut
   ICHARG =      2    charge: 1-file 2-atom 10-const
   ISPIN  =      1    spin polarized calculation?
   LNONCOLLINEAR =      F non collinear calculations
   LSORBIT =      F    spin-orbit coupling
   INIWAV =      1    electr: 0-lowe 1-rand  2-diag
   LASPH  =      T    aspherical Exc in radial PAW
 Electronic Relaxation 1
   ENCUT  =  600.0 eV  44.10 Ry    6.64 a.u.  16.86 16.86 42.60*2*pi/ulx,y,z
   ENINI  =  600.0     initial cutoff
   ENAUG  =  758.8 eV  augmentation charge cutoff
   NELM   =    200;   NELMIN=  8; NELMDL= -5     # of ELM steps 
   EDIFF  = 0.1E-05   stopping-criterion for ELM
   LREAL  =      F    real-space projection
   NLSPLINE    = F    spline interpolate recip. space projectors
   LCOMPAT=      F    compatible to vasp.4.4
   GGA_COMPAT  = T    GGA compatible to vasp.4.4-vasp.4.6
   LMAXPAW     = -100 max onsite density
   LMAXMIX     =    2 max onsite mixed and CHGCAR
   VOSKOWN=      0    Vosko Wilk Nusair interpolation
   ROPT   =    0.00000   0.00000   0.00000   0.00000
 Ionic relaxation
   EDIFFG = -.1E-01   stopping-criterion for IOM
   NSW    =      0    number of steps for IOM
   NBLOCK =      1;   KBLOCK =      1    inner block; outer block 
   IBRION =     -1    ionic relax: 0-MD 1-quasi-New 2-CG
   NFREE  =      0    steps in history (QN), initial steepest desc. (CG)
   ISIF   =      2    stress and relaxation
   IWAVPR =     10    prediction:  0-non 1-charg 2-wave 3-comb
   ISYM   =      2    0-nonsym 1-usesym 2-fastsym
   LCORR  =      T    Harris-Foulkes like correction to forces

   POTIM  = 0.5000    time-step for ionic-motion
   TEIN   =    0.0    initial temperature
   TEBEG  =    0.0;   TEEND  =   0.0 temperature during run
   SMASS  =  -3.00    Nose mass-parameter (am)
   estimated Nose-frequenzy (Omega)   =  0.10E-29 period in steps = 0.13E+47 mass=  -0.163E-26a.u.
   SCALEE = 1.0000    scale energy and forces
   NPACO  =    256;   APACO  = 10.0  distance and # of slots for P.C.
   PSTRESS=    0.0 pullay stress

  Mass of Ions in am
   POMASS =  12.01 16.00 24.30 16.00
  Ionic Valenz
   ZVAL   =   4.00  6.00  8.00  6.00
  Atomic Wigner-Seitz radii
   RWIGS  =  -1.00 -1.00 -1.00 -1.00
  virtual crystal weights 
   VCA    =   1.00  1.00  1.00  1.00
   NELECT =     458.0000    total number of electrons
   NUPDOWN=      -1.0000    fix difference up-down

 DOS related values:
   EMIN   =  10.00;   EMAX   =-10.00  energy-range for DOS
   EFERMI =   0.00
   ISMEAR =     0;   SIGMA  =   0.05  broadening in eV -4-tet -1-fermi 0-gaus

 Electronic relaxation 2 (details)
   IALGO  =     58    algorithm
   LDIAG  =      T    sub-space diagonalisation (order eigenvalues)
   LSUBROT=      F    optimize rotation matrix (better conditioning)
   TURBO    =      0    0=normal 1=particle mesh
   IRESTART =      0    0=no restart 2=restart with 2 vectors
   NREBOOT  =      0    no. of reboots
   NMIN     =      0    reboot dimension
   EREF     =   0.00    reference energy to select bands
   IMIX   =      4    mixing-type and parameters
     AMIX     =   0.40;   BMIX     =  1.00
     AMIX_MAG =   1.60;   BMIX_MAG =  1.00
     AMIN     =   0.10
     WC   =   100.;   INIMIX=   1;  MIXPRE=   1;  MAXMIX= -45

 Intra band minimization:
   WEIMIN = 0.0000     energy-eigenvalue tresh-hold
   EBREAK =  0.78E-09  absolut break condition
   DEPER  =   0.30     relativ break condition  

   TIME   =   0.40     timestep for ELM

  volume/ion in A,a.u.               =      23.03       155.40
  Fermi-wavevector in a.u.,A,eV,Ry     =   1.097571  2.074108 16.390423  1.204662
  Thomas-Fermi vector in A             =   2.233933

 Write flags
   LWAVE        =      F    write WAVECAR
   LDOWNSAMPLE  =      F    k-point downsampling of WAVECAR
   LCHARG       =      F    write CHGCAR
   LVTOT        =      F    write LOCPOT, total local potential
   LVHAR        =      F    write LOCPOT, Hartree potential only
   LELF         =      F    write electronic localiz. function (ELF)
   LORBIT       =      0    0 simple, 1 ext, 2 COOP (PROOUT), +10 PAW based schemes


 Dipole corrections
   LMONO  =      F    monopole corrections only (constant potential shift)
   LDIPOL =      T    correct potential (dipole corrections)
   IDIPOL =      3    1-x, 2-y, 3-z, 4-all directions 
   EPSILON=  1.0000000 bulk dielectric constant

 Exchange correlation treatment:
   GGA     =    PE    GGA type
   LEXCH   =     8    internal setting for exchange type
   LIBXC   =     F    Libxc                    
   VOSKOWN =     0    Vosko Wilk Nusair interpolation
   LHFCALC =     F    Hartree Fock is set to
   LHFONE  =     F    Hartree Fock one center treatment
   AEXX    =    0.0000 exact exchange contribution

 Linear response parameters
   LEPSILON=     F    determine dielectric tensor
   LRPA    =     F    only Hartree local field effects (RPA)
   LNABLA  =     F    use nabla operator in PAW spheres
   LVEL    =     F    velocity operator in full k-point grid
   CSHIFT  =0.1000    complex shift for real part using Kramers Kronig
   OMEGAMAX=  -1.0    maximum frequency
   DEG_THRESHOLD= 0.2000000E-02 threshold for treating states as degnerate
   RTIME   =   -0.100 relaxation time in fs
  (WPLASMAI=    0.000 imaginary part of plasma frequency in eV, 0.658/RTIME)
   DFIELD  = 0.0000000 0.0000000 0.0000000 field for delta impulse in time

  Optional k-point grid parameters
   LKPOINTS_OPT  =     F    use optional k-point grid
   KPOINTS_OPT_MODE=     1    mode for optional k-point grid

 Orbital magnetization related:
   ORBITALMAG=     F  switch on orbital magnetization
   LCHIMAG   =     F  perturbation theory with respect to B field
   DQ        =  0.001000  dq finite difference perturbation B field
   LLRAUG    =     F  two centre corrections for induced B field



--------------------------------------------------------------------------------------------------------


 Static calculation
 charge density and potential will be updated during run
 non-spin polarized calculation
 Conjugate gradient for all bands (Freysoldt, et al. PRB 79, 241103 (2009))
 preconditioned conjugated gradient                                        
 perform sub-space diagonalisation
    before iterative eigenvector-optimisation
 modified Broyden-mixing scheme, WC =      100.0
 initial mixing is a Kerker type mixing with AMIX =  0.4000 and BMIX =      1.0000
 Hartree-type preconditioning will be used
 using additional bands           91
 reciprocal scheme for non local part
 use partial core corrections
 no Harris-corrections to forces 
 use gradient corrections 
 use of overlap-Matrix (Vanderbilt PP)
 Gauss-broadening in eV      SIGMA  =   0.05


--------------------------------------------------------------------------------------------------------


  energy-cutoff  :      600.00
  volume of cell :     1519.82
      direct lattice vectors                 reciprocal lattice vectors
     8.440984654  0.000000000  0.000000000     0.118469591  0.000000000  0.000000000
     0.000000000  8.440984654  0.000000000     0.000000000  0.118469591  0.000000000
     0.000000000  0.000000000 21.330738491     0.000000000  0.000000000  0.046880702

  length of vectors
     8.440984654  8.440984654 21.330738491     0.118469591  0.118469591  0.046880702



 k-points in units of 2pi/SCALE and weight: pymatgen v2020.8.13 with grid density = 
   0.00000000  0.00000000  0.00000000       0.250
   0.05923480  0.00000000  0.00000000       0.500
   0.05923480  0.05923480  0.00000000       0.250

 k-points in reciprocal lattice and weights: pymatgen v2020.8.13 with grid density = 
   0.00000000  0.00000000  0.00000000       0.250
   0.50000000  0.00000000  0.00000000       0.500
   0.50000000  0.50000000  0.00000000       0.250

 position of ions in fractional coordinates (direct lattice) 
   0.50000000  0.50000000  0.77156917
   0.50000000  0.50000000  0.82533289
   0.00000000  0.75000000  0.35160527
   0.25000000  0.00000000  0.35160527
   0.00000000  0.00000000  0.45053509
   0.25000000  0.75000000  0.45053509
   0.00000000  0.74993927  0.55008324
   0.25006073  0.00000000  0.55008324
   0.00000000  0.00000000  0.64874531
   0.24985833  0.75014167  0.64856955
   0.00000000  0.25000000  0.35160527
   0.25000000  0.50000000  0.35160527
   0.00000000  0.50000000  0.45053509
   0.25000000  0.25000000  0.45053509
   0.00000000  0.25006073  0.55008324
   0.25037838  0.50000000  0.55021952
   0.00000000  0.50000000  0.64861528
   0.24985833  0.24985833  0.64856955
   0.50000000  0.75000000  0.35160527
   0.75000000  0.00000000  0.35160527
   0.50000000  0.00000000  0.45053509
   0.75000000  0.75000000  0.45053509
   0.50000000  0.74962162  0.55021952
   0.74993927  0.00000000  0.55008324
   0.50000000  0.00000000  0.64861528
   0.75014167  0.75014167  0.64856955
   0.50000000  0.25000000  0.35160527
   0.75000000  0.50000000  0.35160527
   0.50000000  0.50000000  0.45053509
   0.75000000  0.25000000  0.45053509
   0.50000000  0.25037838  0.55021952
   0.74962162  0.50000000  0.55021952
   0.50000000  0.50000000  0.65061696
   0.75014167  0.24985833  0.64856955
   0.00000000  0.75000000  0.45053509
   0.25000000  0.00000000  0.45053509
   0.00000000  0.00000000  0.35160527
   0.25000000  0.75000000  0.35160527
   0.00000000  0.75021853  0.65097926
   0.24978147  0.00000000  0.65097926
   0.00000000  0.00000000  0.54980989
   0.24994577  0.75005423  0.54985911
   0.00000000  0.25000000  0.45053509
   0.25000000  0.50000000  0.45053509
   0.00000000  0.50000000  0.35160527
   0.25000000  0.25000000  0.35160527
   0.00000000  0.24978147  0.65097926
   0.24882271  0.50000000  0.65088287
   0.00000000  0.50000000  0.54976267
   0.24994577  0.24994577  0.54985911
   0.50000000  0.75000000  0.45053509
   0.75000000  0.00000000  0.45053509
   0.50000000  0.00000000  0.35160527
   0.75000000  0.75000000  0.35160527
   0.50000000  0.75117729  0.65088287
   0.75021853  0.00000000  0.65097926
   0.50000000  0.00000000  0.54976267
   0.75005423  0.75005423  0.54985911
   0.50000000  0.25000000  0.45053509
   0.75000000  0.50000000  0.45053509
   0.50000000  0.50000000  0.35160527
   0.75000000  0.25000000  0.35160527
   0.50000000  0.24882271  0.65088287
   0.75117729  0.50000000  0.65088287
   0.50000000  0.50000000  0.55023136
   0.75005423  0.24994577  0.54985911

 position of ions in cartesian coordinates  (Angst):
   4.22049233  4.22049233 16.45814023
   4.22049233  4.22049233 17.60496005
   0.00000000  6.33073849  7.50000000
   2.11024616  0.00000000  7.50000000
   0.00000000  0.00000000  9.61024616
   2.11024616  6.33073849  9.61024616
   0.00000000  6.33022585 11.73368172
   2.11075880  0.00000000 11.73368172
   0.00000000  0.00000000 13.83821654
   2.10905031  6.33193435 13.83446740
   0.00000000  2.11024616  7.50000000
   2.11024616  4.22049233  7.50000000
   0.00000000  4.22049233  9.61024616
   2.11024616  2.11024616  9.61024616
   0.00000000  2.11075880 11.73368172
   2.11344006  4.22049233 11.73658877
   0.00000000  4.22049233 13.83544293
   2.10905031  2.10905031 13.83446740
   4.22049233  6.33073849  7.50000000
   6.33073849  0.00000000  7.50000000
   4.22049233  0.00000000  9.61024616
   6.33073849  6.33073849  9.61024616
   4.22049233  6.32754460 11.73658877
   6.33022585  0.00000000 11.73368172
   4.22049233  0.00000000 13.83544293
   6.33193435  6.33193435 13.83446740
   4.22049233  2.11024616  7.50000000
   6.33073849  4.22049233  7.50000000
   4.22049233  4.22049233  9.61024616
   6.33073849  2.11024616  9.61024616
   4.22049233  2.11344006 11.73658877
   6.32754460  4.22049233 11.73658877
   4.22049233  4.22049233 13.87814023
   6.33193435  2.10905031 13.83446740
   0.00000000  6.33073849  9.61024616
   2.11024616  0.00000000  9.61024616
   0.00000000  0.00000000  7.50000000
   2.11024616  6.33073849  7.50000000
   0.00000000  6.33258312 13.88586825
   2.10840153  0.00000000 13.88586825
   0.00000000  0.00000000 11.72785099
   2.10978841  6.33119624 11.72890095
   0.00000000  2.11024616  9.61024616
   2.11024616  4.22049233  9.61024616
   0.00000000  4.22049233  7.50000000
   2.11024616  2.11024616  7.50000000
   0.00000000  2.10840153 13.88586825
   2.10030867  4.22049233 13.88381232
   0.00000000  4.22049233 11.72684365
   2.10978841  2.10978841 11.72890095
   4.22049233  6.33073849  9.61024616
   6.33073849  0.00000000  9.61024616
   4.22049233  0.00000000  7.50000000
   6.33073849  6.33073849  7.50000000
   4.22049233  6.34067598 13.88381232
   6.33258312  0.00000000 13.88586825
   4.22049233  0.00000000 11.72684365
   6.33119624  6.33119624 11.72890095
   4.22049233  2.11024616  9.61024616
   6.33073849  4.22049233  9.61024616
   4.22049233  4.22049233  7.50000000
   6.33073849  2.11024616  7.50000000
   4.22049233  2.10030867 13.88381232
   6.34067598  4.22049233 13.88381232
   4.22049233  4.22049233 11.73684118
   6.33119624  2.10978841 11.72890095



--------------------------------------------------------------------------------------------------------


 k-point   1 :   0.0000 0.0000 0.0000  plane waves:   50745
 k-point   2 :   0.5000 0.0000 0.0000  plane waves:   50798
 k-point   3 :   0.5000 0.5000 0.0000  plane waves:   50752

 maximum and minimum number of plane-waves per node :     12720    12632

 maximum number of plane-waves:     50798
 maximum index in each direction: 
   IXMAX=   16   IYMAX=   16   IZMAX=   42
   IXMIN=  -17   IYMIN=  -17   IZMIN=  -42


 parallel 3D FFT for wavefunctions:
    minimum data exchange during FFTs selected (reduces bandwidth)
 parallel 3D FFT for charge:
    minimum data exchange during FFTs selected (reduces bandwidth)


 total amount of memory used by VASP MPI-rank0    78528. kBytes
=======================================================================

   base      :      30000. kBytes
   nonl-proj :      29343. kBytes
   fftplans  :       3857. kBytes
   grid      :       5885. kBytes
   one-center:        137. kBytes
   wavefun   :       9306. kBytes

     INWAV:  cpu time      0.0001: real time      0.0001
 Broyden mixing: mesh for mixing (old mesh)
   NGX = 33   NGY = 33   NGZ = 85
  (NGX  =108   NGY  =108   NGZ  =256)
  gives a total of  92565 points

 initial charge density was supplied:
 charge density of overlapping atoms calculated
 number of electron     458.0000000 magnetization 
 keeping initial charge density in first step


--------------------------------------------------------------------------------------------------------


 Maximum index for augmentation-charges          334 (set IRDMAX)


--------------------------------------------------------------------------------------------------------


 First call to EWALD:  gamma=   0.154
 Maximum number of real-space cells 4x 4x 2
 Maximum number of reciprocal cells 2x 2x 5

    FEWALD:  cpu time      0.0051: real time      0.0051


--------------------------------------- Iteration      1(   1)  ---------------------------------------


    POTLOK:  cpu time      0.0479: real time      0.0487
    SETDIJ:  cpu time      0.1332: real time      0.1332
    TRIAL :  cpu time      5.4347: real time      5.4861
    CORREC:  cpu time      0.0016: real time      0.0016
    --------------------------------------------
      LOOP:  cpu time      5.6194: real time      5.7262

 eigenvalue-minimisations  :  2304
 total energy-change (2. order) : 0.4152881E+04  (-0.3066680E+05)
 number of electron     458.0000000 magnetization 
 augmentation part      458.0000000 magnetization 

 DIPCOR: dipole corrections for dipol
 direction  3 min pos     1,
 dipolmoment           0.000000      0.000000     -0.000352 electrons x Angstroem
 Tr[quadrupol]     -6318.707966

 energy correction for charged system         0.000000 eV
 dipol+quadrupol energy correction           -0.000000 eV
 added-field ion interaction          0.002911 eV  (added to PSCEN)


 Free energy of the ion-electron system (eV)
  ---------------------------------------------------
  alpha Z        PSCENC =       907.96701471
  Ewald energy   TEWEN  =    136826.47027779
  -Hartree energ DENC   =   -172926.08885425
  -exchange      EXHF   =         0.00000000
  -V(xc)+E(xc)   XCENC  =      1789.10901964
  PAW double counting   =     32310.01086261   -36145.30683839
  entropy T*S    EENTRO =        -0.02278932
  eigenvalues    EBANDS =     -6839.14611273
  atomic energy  EATOM  =     48229.88884101
  ---------------------------------------------------
  free energy    TOTEN  =      4152.88142107 eV

  energy without entropy =     4152.90421039  energy(sigma->0) =     4152.89281573


--------------------------------------------------------------------------------------------------------




--------------------------------------- Iteration      1(   2)  ---------------------------------------


    TRIAL :  cpu time      2.2479: real time      2.2485
    CORREC:  cpu time      0.0003: real time      0.0003
    --------------------------------------------
      LOOP:  cpu time      2.2622: real time      2.2634

 eigenvalue-minimisations  :  2304
 total energy-change (2. order) :-0.4287061E+04  (-0.4213238E+04)
 number of electron     458.0000000 magnetization 
 augmentation part      458.0000000 magnetization 

 DIPCOR: dipole corrections for dipol
 direction  3 min pos     1,
 dipolmoment           0.000000      0.000000     -0.000352 electrons x Angstroem
 Tr[quadrupol]     -6318.707966

 energy correction for charged system         0.000000 eV
 dipol+quadrupol energy correction           -0.000000 eV
 added-field ion interaction          0.002911 eV  (added to PSCEN)


 Free energy of the ion-electron system (eV)
  ---------------------------------------------------
  alpha Z        PSCENC =       907.96701471
  Ewald energy   TEWEN  =    136826.47027779
  -Hartree energ DENC   =   -172926.08885425
  -exchange      EXHF   =         0.00000000
  -V(xc)+E(xc)   XCENC  =      1789.10901964
  PAW double counting   =     32310.01086261   -36145.30683839
  entropy T*S    EENTRO =        -0.00000000
  eigenvalues    EBANDS =    -11126.22955942
  atomic energy  EATOM  =     48229.88884101
  ---------------------------------------------------
  free energy    TOTEN  =      -134.17923631 eV

  energy without entropy =     -134.17923631  energy(sigma->0) =     -134.17923631


--------------------------------------------------------------------------------------------------------




--------------------------------------- Iteration      1(   3)  ---------------------------------------


    TRIAL :  cpu time      2.3699: real time      2.3701
    CORREC:  cpu time      0.0003: real time      0.0003
    --------------------------------------------
      LOOP:  cpu time      2.3765: real time      2.3845

 eigenvalue-minimisations  :  2304
 total energy-change (2. order) :-0.3105538E+03  (-0.3084854E+03)
 number of electron     458.0000000 magnetization 
 augmentation part      458.0000000 magnetization 

 DIPCOR: dipole corrections for dipol
 direction  3 min pos     1,
 dipolmoment           0.000000      0.000000     -0.000352 electrons x Angstroem
 Tr[quadrupol]     -6318.707966

 energy correction for charged system         0.000000 eV
 dipol+quadrupol energy correction           -0.000000 eV
 added-field ion interaction          0.002911 eV  (added to PSCEN)


 Free energy of the ion-electron system (eV)
  ---------------------------------------------------
  alpha Z        PSCENC =       907.96701471
  Ewald energy   TEWEN  =    136826.47027779
  -Hartree energ DENC   =   -172926.08885425
  -exchange      EXHF   =         0.00000000
  -V(xc)+E(xc)   XCENC  =      1789.10901964
  PAW double counting   =     32310.01086261   -36145.30683839
  entropy T*S    EENTRO =        -0.00000000
  eigenvalues    EBANDS =    -11436.78332262
  atomic energy  EATOM  =     48229.88884101
  ---------------------------------------------------
  free energy    TOTEN  =      -444.73299951 eV

  energy without entropy =     -444.73299951  energy(sigma->0) =     -444.73299951


--------------------------------------------------------------------------------------------------------




--------------------------------------- Iteration      1(   4)  ---------------------------------------


    TRIAL :  cpu time      2.3632: real time      2.3633
    CORREC:  cpu time      0.0003: real time      0.0003
    --------------------------------------------
      LOOP:  cpu time      2.3778: real time      2.3781

 eigenvalue-minimisations  :  2368
 total energy-change (2. order) :-0.6021620E+01  (-0.6014515E+01)
 number of electron     458.0000000 magnetization 
 augmentation part      458.0000000 magnetization 

 DIPCOR: dipole corrections for dipol
 direction  3 min pos     1,
 dipolmoment           0.000000      0.000000     -0.000352 electrons x Angstroem
 Tr[quadrupol]     -6318.707966

 energy correction for charged system         0.000000 eV
 dipol+quadrupol energy correction           -0.000000 eV
 added-field ion interaction          0.002911 eV  (added to PSCEN)


 Free energy of the ion-electron system (eV)
  ---------------------------------------------------
  alpha Z        PSCENC =       907.96701471
  Ewald energy   TEWEN  =    136826.47027779
  -Hartree energ DENC   =   -172926.08885425
  -exchange      EXHF   =         0.00000000
  -V(xc)+E(xc)   XCENC  =      1789.10901964
  PAW double counting   =     32310.01086261   -36145.30683839
  entropy T*S    EENTRO =        -0.00000000
  eigenvalues    EBANDS =    -11442.80494277
  atomic energy  EATOM  =     48229.88884101
  ---------------------------------------------------
  free energy    TOTEN  =      -450.75461966 eV

  energy without entropy =     -450.75461966  energy(sigma->0) =     -450.75461966


--------------------------------------------------------------------------------------------------------




--------------------------------------- Iteration      1(   5)  ---------------------------------------


    TRIAL :  cpu time      2.6143: real time      2.6144
    CORREC:  cpu time      0.0003: real time      0.0003
    CHARGE:  cpu time      0.0742: real time      0.0744
    --------------------------------------------
      LOOP:  cpu time      2.6946: real time      2.7036

 eigenvalue-minimisations  :  2368
 total energy-change (2. order) :-0.7802135E-01  (-0.7801831E-01)
 number of electron     457.9999378 magnetization 
 augmentation part      159.5881758 magnetization 

 DIPCOR: dipole corrections for dipol
 direction  3 min pos     1,
 dipolmoment           0.000000      0.000000     -0.000352 electrons x Angstroem
 Tr[quadrupol]     -6318.707966

 energy correction for charged system         0.000000 eV
 dipol+quadrupol energy correction           -0.000000 eV
 added-field ion interaction          0.002911 eV  (added to PSCEN)


 Free energy of the ion-electron system (eV)
  ---------------------------------------------------
  alpha Z        PSCENC =       907.96701471
  Ewald energy   TEWEN  =    136826.47027779
  -Hartree energ DENC   =   -172926.08885425
  -exchange      EXHF   =         0.00000000
  -V(xc)+E(xc)   XCENC  =      1789.10901964
  PAW double counting   =     32310.01086261   -36145.30683839
  entropy T*S    EENTRO =        -0.00000000
  eigenvalues    EBANDS =    -11442.88296412
  atomic energy  EATOM  =     48229.88884101
  ---------------------------------------------------
  free energy    TOTEN  =      -450.83264101 eV

  energy without entropy =     -450.83264101  energy(sigma->0) =     -450.83264101


--------------------------------------------------------------------------------------------------------




--------------------------------------- Iteration      1(   6)  ---------------------------------------


    POTLOK:  cpu time      0.0315: real time      0.0315
    SETDIJ:  cpu time      0.1914: real time      0.1914
    TRIAL :  cpu time      0.6718: real time      0.6725
    CORREC:  cpu time      0.5266: real time      0.5269
    CHARGE:  cpu time      0.0541: real time      0.0541
    --------------------------------------------
      LOOP:  cpu time      1.4892: real time      1.4904

 eigenvalue-minimisations  :     0
 total energy-change (2. order) : 0.1740752E+03  (-0.9610798E+02)
 number of electron     457.9999269 magnetization 
 augmentation part      156.6864013 magnetization 

 DIPCOR: dipole corrections for dipol
 direction  3 min pos     1,
 dipolmoment           0.000000      0.000000      0.169071 electrons x Angstroem
 Tr[quadrupol]     -6355.670858

 energy correction for charged system         0.000000 eV
 dipol+quadrupol energy correction           -0.001702 eV
 added-field ion interaction         -1.396970 eV  (added to PSCEN)


 Free energy of the ion-electron system (eV)
  ---------------------------------------------------
  alpha Z        PSCENC =       904.25137680
  Ewald energy   TEWEN  =    136826.47027779
  -Hartree energ DENC   =   -176790.60928510
  -exchange      EXHF   =         0.00000000
  -V(xc)+E(xc)   XCENC  =      1914.74984616
  PAW double counting   =     36989.43689160   -40779.32327002
  entropy T*S    EENTRO =        -0.00000000
  eigenvalues    EBANDS =     -7571.62214052
  atomic energy  EATOM  =     48229.88884101
  ---------------------------------------------------
  free energy    TOTEN  =      -276.75746228 eV

  energy without entropy =     -276.75746228  energy(sigma->0) =     -276.75746228


--------------------------------------------------------------------------------------------------------




--------------------------------------- Iteration      1(   7)  ---------------------------------------


    POTLOK:  cpu time      0.0305: real time      0.0305
    SETDIJ:  cpu time      0.1868: real time      0.1868
    TRIAL :  cpu time      0.5988: real time      0.5993
    CORREC:  cpu time      0.5112: real time      0.5112
    CHARGE:  cpu time      0.0554: real time      0.0554
    --------------------------------------------
      LOOP:  cpu time      1.3874: real time      1.3978

 eigenvalue-minimisations  :     0
 total energy-change (2. order) :-0.9651135E+02  (-0.6890097E+01)
 number of electron     457.9999259 magnetization 
 augmentation part      154.8087392 magnetization 

 DIPCOR: dipole corrections for dipol
 direction  3 min pos     1,
 dipolmoment           0.000000      0.000000      0.152961 electrons x Angstroem
 Tr[quadrupol]     -6361.016796

 energy correction for charged system         0.000000 eV
 dipol+quadrupol energy correction           -0.001393 eV
 added-field ion interaction         -1.263858 eV  (added to PSCEN)


 Free energy of the ion-electron system (eV)
  ---------------------------------------------------
  alpha Z        PSCENC =       906.28038302
  Ewald energy   TEWEN  =    136826.47027779
  -Hartree energ DENC   =   -174951.43800676
  -exchange      EXHF   =         0.00000000
  -V(xc)+E(xc)   XCENC  =      1846.06600405
  PAW double counting   =     35880.47327114   -39739.42412141
  entropy T*S    EENTRO =        -0.00000000
  eigenvalues    EBANDS =     -9371.58545899
  atomic energy  EATOM  =     48229.88884101
  ---------------------------------------------------
  free energy    TOTEN  =      -373.26881015 eV

  energy without entropy =     -373.26881015  energy(sigma->0) =     -373.26881015


--------------------------------------------------------------------------------------------------------




--------------------------------------- Iteration      1(   8)  ---------------------------------------


    POTLOK:  cpu time      0.0291: real time      0.0291
    SETDIJ:  cpu time      0.1875: real time      0.1876
    TRIAL :  cpu time      0.5992: real time      0.5993
    CORREC:  cpu time      0.5133: real time      0.5133
    CHARGE:  cpu time      0.0542: real time      0.0543
    --------------------------------------------
      LOOP:  cpu time      1.3978: real time      1.3984

 eigenvalue-minimisations  :     0
 total energy-change (2. order) :-0.6906008E+01  (-0.4338557E+01)
 number of electron     457.9999242 magnetization 
 augmentation part      154.9267622 magnetization 

 DIPCOR: dipole corrections for dipol
 direction  3 min pos     1,
 dipolmoment           0.000000      0.000000      0.097466 electrons x Angstroem
 Tr[quadrupol]     -6359.293675

 energy correction for charged system         0.000000 eV
 dipol+quadrupol energy correction           -0.000566 eV
 added-field ion interaction         -0.805323 eV  (added to PSCEN)


 Free energy of the ion-electron system (eV)
  ---------------------------------------------------
  alpha Z        PSCENC =       906.84600024
  Ewald energy   TEWEN  =    136826.47027779
  -Hartree energ DENC   =   -174844.37195576
  -exchange      EXHF   =         0.00000000
  -V(xc)+E(xc)   XCENC  =      1836.27761310
  PAW double counting   =     35765.97571171   -39555.44254779
  entropy T*S    EENTRO =        -0.00000000
  eigenvalues    EBANDS =     -9545.81875875
  atomic energy  EATOM  =     48229.88884101
  ---------------------------------------------------
  free energy    TOTEN  =      -380.17481846 eV

  energy without entropy =     -380.17481846  energy(sigma->0) =     -380.17481846


--------------------------------------------------------------------------------------------------------




--------------------------------------- Iteration      1(   9)  ---------------------------------------


    POTLOK:  cpu time      0.0296: real time      0.0296
    SETDIJ:  cpu time      0.1874: real time      0.1874
    TRIAL :  cpu time      0.6008: real time      0.6009
    CORREC:  cpu time      0.5128: real time      0.5128
    CHARGE:  cpu time      0.0535: real time      0.0535
    --------------------------------------------
      LOOP:  cpu time      1.3912: real time      1.3989

 eigenvalue-minimisations  :     0
 total energy-change (2. order) :-0.4255437E+01  (-0.1734170E+01)
 number of electron     457.9999241 magnetization 
 augmentation part      154.9441025 magnetization 

 DIPCOR: dipole corrections for dipol
 direction  3 min pos     1,
 dipolmoment           0.000000      0.000000      0.125707 electrons x Angstroem
 Tr[quadrupol]     -6351.933424

 energy correction for charged system         0.000000 eV
 dipol+quadrupol energy correction           -0.000941 eV
 added-field ion interaction         -1.038673 eV  (added to PSCEN)


 Free energy of the ion-electron system (eV)
  ---------------------------------------------------
  alpha Z        PSCENC =       907.29949402
  Ewald energy   TEWEN  =    136826.47027779
  -Hartree energ DENC   =   -174710.17008584
  -exchange      EXHF   =         0.00000000
  -V(xc)+E(xc)   XCENC  =      1835.64353526
  PAW double counting   =     35682.79662505   -39508.67533533
  entropy T*S    EENTRO =        -0.00000000
  eigenvalues    EBANDS =     -9647.68360708
  atomic energy  EATOM  =     48229.88884101
  ---------------------------------------------------
  free energy    TOTEN  =      -384.43025513 eV

  energy without entropy =     -384.43025513  energy(sigma->0) =     -384.43025513


--------------------------------------------------------------------------------------------------------




--------------------------------------- Iteration      1(  10)  ---------------------------------------


    POTLOK:  cpu time      0.0291: real time      0.0291
    SETDIJ:  cpu time      0.1877: real time      0.1877
    TRIAL :  cpu time      0.5997: real time      0.5997
    CORREC:  cpu time      0.5115: real time      0.5116
    CHARGE:  cpu time      0.0540: real time      0.0540
    --------------------------------------------
      LOOP:  cpu time      1.3960: real time      1.3963

 eigenvalue-minimisations  :     0
 total energy-change (2. order) :-0.1750423E+01  (-0.5931003E+00)
 number of electron     457.9999248 magnetization 
 augmentation part      154.9054291 magnetization 

 DIPCOR: dipole corrections for dipol
 direction  3 min pos     1,
 dipolmoment           0.000000      0.000000      0.151203 electrons x Angstroem
 Tr[quadrupol]     -6350.887736

 energy correction for charged system         0.000000 eV
 dipol+quadrupol energy correction           -0.001361 eV
 added-field ion interaction         -1.249339 eV  (added to PSCEN)


 Free energy of the ion-electron system (eV)
  ---------------------------------------------------
  alpha Z        PSCENC =       906.99187562
  Ewald energy   TEWEN  =    136826.47027779
  -Hartree energ DENC   =   -174532.34317867
  -exchange      EXHF   =         0.00000000
  -V(xc)+E(xc)   XCENC  =      1833.92906129
  PAW double counting   =     35575.69212048   -39409.50244175
  entropy T*S    EENTRO =        -0.00000000
  eigenvalues    EBANDS =     -9817.30723425
  atomic energy  EATOM  =     48229.88884101
  ---------------------------------------------------
  free energy    TOTEN  =      -386.18067849 eV

  energy without entropy =     -386.18067849  energy(sigma->0) =     -386.18067849


--------------------------------------------------------------------------------------------------------




--------------------------------------- Iteration      1(  11)  ---------------------------------------


    POTLOK:  cpu time      0.0291: real time      0.0291
    SETDIJ:  cpu time      0.1875: real time      0.1875
    TRIAL :  cpu time      0.6003: real time      0.6003
    CORREC:  cpu time      0.5149: real time      0.5149
    CHARGE:  cpu time      0.0542: real time      0.0542
    --------------------------------------------
      LOOP:  cpu time      1.3918: real time      1.4005

 eigenvalue-minimisations  :     0
 total energy-change (2. order) :-0.5943123E+00  (-0.2075258E+00)
 number of electron     457.9999252 magnetization 
 augmentation part      155.0008680 magnetization 

 DIPCOR: dipole corrections for dipol
 direction  3 min pos     1,
 dipolmoment           0.000000      0.000000      0.139256 electrons x Angstroem
 Tr[quadrupol]     -6351.662250

 energy correction for charged system         0.000000 eV
 dipol+quadrupol energy correction           -0.001154 eV
 added-field ion interaction         -1.150626 eV  (added to PSCEN)


 Free energy of the ion-electron system (eV)
  ---------------------------------------------------
  alpha Z        PSCENC =       906.75047009
  Ewald energy   TEWEN  =    136826.47027779
  -Hartree energ DENC   =   -174467.79140387
  -exchange      EXHF   =         0.00000000
  -V(xc)+E(xc)   XCENC  =      1832.94764270
  PAW double counting   =     35518.44101190   -39344.20998567
  entropy T*S    EENTRO =        -0.00000000
  eigenvalues    EBANDS =     -9889.27184478
  atomic energy  EATOM  =     48229.88884101
  ---------------------------------------------------
  free energy    TOTEN  =      -386.77499083 eV

  energy without entropy =     -386.77499083  energy(sigma->0) =     -386.77499083


--------------------------------------------------------------------------------------------------------




--------------------------------------- Iteration      1(  12)  ---------------------------------------


    POTLOK:  cpu time      0.0290: real time      0.0290
    SETDIJ:  cpu time      0.1889: real time      0.1889
    TRIAL :  cpu time      0.5987: real time      0.5988
    CORREC:  cpu time      0.5126: real time      0.5126
    CHARGE:  cpu time      0.0539: real time      0.0539
    --------------------------------------------
      LOOP:  cpu time      1.3874: real time      1.3976

 eigenvalue-minimisations  :     0
 total energy-change (2. order) :-0.2075138E+00  (-0.7167225E-01)
 number of electron     457.9999254 magnetization 
 augmentation part      155.1030596 magnetization 

 DIPCOR: dipole corrections for dipol
 direction  3 min pos     1,
 dipolmoment           0.000000      0.000000      0.128266 electrons x Angstroem
 Tr[quadrupol]     -6352.329779

 energy correction for charged system         0.000000 eV
 dipol+quadrupol energy correction           -0.000979 eV
 added-field ion interaction         -1.059818 eV  (added to PSCEN)


 Free energy of the ion-electron system (eV)
  ---------------------------------------------------
  alpha Z        PSCENC =       906.81059817
  Ewald energy   TEWEN  =    136826.47027779
  -Hartree energ DENC   =   -174491.16704513
  -exchange      EXHF   =         0.00000000
  -V(xc)+E(xc)   XCENC  =      1833.22124771
  PAW double counting   =     35506.27557288   -39330.45554361
  entropy T*S    EENTRO =        -0.00000000
  eigenvalues    EBANDS =     -9868.02645343
  atomic energy  EATOM  =     48229.88884101
  ---------------------------------------------------
  free energy    TOTEN  =      -386.98250461 eV

  energy without entropy =     -386.98250461  energy(sigma->0) =     -386.98250461


--------------------------------------------------------------------------------------------------------




--------------------------------------- Iteration      1(  13)  ---------------------------------------


    POTLOK:  cpu time      0.0291: real time      0.0291
    SETDIJ:  cpu time      0.1879: real time      0.1879
    TRIAL :  cpu time      0.6002: real time      0.6003
    CORREC:  cpu time      0.5121: real time      0.5122
    CHARGE:  cpu time      0.0540: real time      0.0540
    --------------------------------------------
      LOOP:  cpu time      1.3894: real time      1.3979

 eigenvalue-minimisations  :     0
 total energy-change (2. order) :-0.7168961E-01  (-0.3153285E-01)
 number of electron     457.9999253 magnetization 
 augmentation part      155.1368067 magnetization 

 DIPCOR: dipole corrections for dipol
 direction  3 min pos     1,
 dipolmoment           0.000000      0.000000      0.123569 electrons x Angstroem
 Tr[quadrupol]     -6352.725654

 energy correction for charged system         0.000000 eV
 dipol+quadrupol energy correction           -0.000909 eV
 added-field ion interaction         -1.021003 eV  (added to PSCEN)


 Free energy of the ion-electron system (eV)
  ---------------------------------------------------
  alpha Z        PSCENC =       906.90762541
  Ewald energy   TEWEN  =    136826.47027779
  -Hartree energ DENC   =   -174519.58000150
  -exchange      EXHF   =         0.00000000
  -V(xc)+E(xc)   XCENC  =      1833.52230839
  PAW double counting   =     35505.45934021   -39332.51382086
  entropy T*S    EENTRO =        -0.00000000
  eigenvalues    EBANDS =     -9837.20876466
  atomic energy  EATOM  =     48229.88884101
  ---------------------------------------------------
  free energy    TOTEN  =      -387.05419422 eV

  energy without entropy =     -387.05419422  energy(sigma->0) =     -387.05419422


--------------------------------------------------------------------------------------------------------




--------------------------------------- Iteration      1(  14)  ---------------------------------------


    POTLOK:  cpu time      0.0291: real time      0.0291
    SETDIJ:  cpu time      0.1875: real time      0.1875
    TRIAL :  cpu time      0.6043: real time      0.6044
    CORREC:  cpu time      0.5113: real time      0.5117
    CHARGE:  cpu time      0.0543: real time      0.0543
    --------------------------------------------
      LOOP:  cpu time      1.3915: real time      1.4016

 eigenvalue-minimisations  :     0
 total energy-change (2. order) :-0.3155401E-01  (-0.1478328E-01)
 number of electron     457.9999253 magnetization 
 augmentation part      155.1225345 magnetization 

 DIPCOR: dipole corrections for dipol
 direction  3 min pos     1,
 dipolmoment           0.000000      0.000000      0.122095 electrons x Angstroem
 Tr[quadrupol]     -6353.041219

 energy correction for charged system         0.000000 eV
 dipol+quadrupol energy correction           -0.000887 eV
 added-field ion interaction         -1.008823 eV  (added to PSCEN)


 Free energy of the ion-electron system (eV)
  ---------------------------------------------------
  alpha Z        PSCENC =       906.94783855
  Ewald energy   TEWEN  =    136826.47027779
  -Hartree energ DENC   =   -174532.39013627
  -exchange      EXHF   =         0.00000000
  -V(xc)+E(xc)   XCENC  =      1833.53310447
  PAW double counting   =     35505.12161915   -39333.65118195
  entropy T*S    EENTRO =        -0.00000000
  eigenvalues    EBANDS =     -9823.00611098
  atomic energy  EATOM  =     48229.88884101
  ---------------------------------------------------
  free energy    TOTEN  =      -387.08574823 eV

  energy without entropy =     -387.08574823  energy(sigma->0) =     -387.08574823


--------------------------------------------------------------------------------------------------------




--------------------------------------- Iteration      1(  15)  ---------------------------------------


    POTLOK:  cpu time      0.0299: real time      0.0299
    SETDIJ:  cpu time      0.1867: real time      0.1867
    TRIAL :  cpu time      0.5990: real time      0.5990
    CORREC:  cpu time      0.5132: real time      0.5132
    CHARGE:  cpu time      0.0539: real time      0.0539
    --------------------------------------------
      LOOP:  cpu time      1.4169: real time      1.4174

 eigenvalue-minimisations  :     0
 total energy-change (2. order) :-0.1479343E-01  (-0.6167765E-02)
 number of electron     457.9999253 magnetization 
 augmentation part      155.1091763 magnetization 

 DIPCOR: dipole corrections for dipol
 direction  3 min pos     1,
 dipolmoment           0.000000      0.000000      0.121759 electrons x Angstroem
 Tr[quadrupol]     -6353.296533

 energy correction for charged system         0.000000 eV
 dipol+quadrupol energy correction           -0.000883 eV
 added-field ion interaction         -1.006047 eV  (added to PSCEN)


 Free energy of the ion-electron system (eV)
  ---------------------------------------------------
  alpha Z        PSCENC =       906.95541722
  Ewald energy   TEWEN  =    136826.47027779
  -Hartree energ DENC   =   -174541.19210589
  -exchange      EXHF   =         0.00000000
  -V(xc)+E(xc)   XCENC  =      1833.55011189
  PAW double counting   =     35508.39225137   -39336.18548472
  entropy T*S    EENTRO =        -0.00000000
  eigenvalues    EBANDS =     -9814.97985033
  atomic energy  EATOM  =     48229.88884101
  ---------------------------------------------------
  free energy    TOTEN  =      -387.10054166 eV

  energy without entropy =     -387.10054166  energy(sigma->0) =     -387.10054166


--------------------------------------------------------------------------------------------------------




--------------------------------------- Iteration      1(  16)  ---------------------------------------


    POTLOK:  cpu time      0.0289: real time      0.0289
    SETDIJ:  cpu time      0.1873: real time      0.1873
    TRIAL :  cpu time      0.5995: real time      0.5996
    CORREC:  cpu time      0.5128: real time      0.5128
    CHARGE:  cpu time      0.0543: real time      0.0543
    --------------------------------------------
      LOOP:  cpu time      1.3874: real time      1.3973

 eigenvalue-minimisations  :     0
[...]
    291       8.4439      0.00000
    292       8.4793      0.00000
    293       8.5092      0.00000
    294       8.5220      0.00000
    295       8.5806      0.00000
    296       8.5891      0.00000
    297       8.6070      0.00000
    298       8.6156      0.00000
    299       8.6189      0.00000
    300       8.8016      0.00000
    301       8.8390      0.00000
    302       8.9125      0.00000
    303       8.9130      0.00000
    304       9.1410      0.00000
    305       9.3304      0.00000
    306       9.4050      0.00000
    307       9.4079      0.00000
    308       9.4805      0.00000
    309       9.5495      0.00000
    310       9.5564      0.00000
    311       9.5609      0.00000
    312       9.7584      0.00000
    313       9.7949      0.00000
    314       9.8451      0.00000
    315       9.8653      0.00000
    316       9.8665      0.00000
    317      10.2468      0.00000
    318      10.2705      0.00000
    319      10.3548      0.00000
    320      10.3628      0.00000


--------------------------------------------------------------------------------------------------------


 soft charge-density along one line, spin component           1
         0         1         2         3         4         5         6         7         8         9
 total charge-density along one line

 pseudopotential strength for first ion, spin component:           1
 10.229  13.603   0.000   0.032   0.000  -0.000  -0.096  -0.000
 13.603  18.090   0.000   0.042   0.000  -0.000  -0.127  -0.000
  0.000   0.000  -4.368  -0.000  -0.000   8.557   0.000   0.000
  0.032   0.042  -0.000  -4.406  -0.000   0.000   8.613   0.000
  0.000   0.000  -0.000  -0.000  -4.368   0.000   0.000   8.557
 -0.000  -0.000   8.557   0.000   0.000 -18.900  -0.000  -0.000
 -0.096  -0.127   0.000   8.613   0.000  -0.000 -18.975  -0.000
 -0.000  -0.000   0.000   0.000   8.557  -0.000  -0.000 -18.900
 total augmentation occupancy for first ion, spin component:           1
  7.242  -3.275   0.000   2.036  -0.000  -0.000   0.372   0.000
 -3.275   1.871   0.000  -1.554   0.000   0.000  -0.225   0.000
  0.000   0.000   0.833   0.000   0.000   0.059   0.000   0.000
  2.036  -1.554   0.000   2.220  -0.000   0.000   0.209   0.000
 -0.000   0.000   0.000  -0.000   0.833   0.000   0.000   0.059
 -0.000   0.000   0.059   0.000   0.000   0.004   0.000   0.000
  0.372  -0.225   0.000   0.209   0.000   0.000   0.028   0.000
  0.000   0.000   0.000   0.000   0.059   0.000   0.000   0.004


------------------------ aborting loop because EDIFF is reached ----------------------------------------


    FORLOC:  cpu time      0.0039: real time      0.0039
    FORNL :  cpu time      0.4190: real time      0.4194
    STRESS:  cpu time      1.3317: real time      1.3319
    FORCOR:  cpu time      0.0268: real time      0.0268
    OFIELD:  cpu time      0.0001: real time      0.0001

  DFT-D2 method for vdW energy calculation
  -------------------------------------------------------------------

  Parameters of vdW forcefield:
         C6(Jnm^6/mol)     R0(A)
   -----------------------------
   C        1.750          1.452
   O        0.700          1.342
   Mg       0.630          1.243
   O        0.700          1.342

  vdW correction parametrized for the method pbe       

  IVDW =   1
  VDW_RADIUS =    50.000 A
  VDW_S6 =     0.750
  VDW_SR =     1.000
  VDW_D =    20.000
  LVDW_EWALD = F

  Number of pair interactions contributing to vdW energy:  768258
  Edisp (eV):   -3.68833
    FORVDW:  cpu time      0.1828: real time      0.1828

  FORCE on cell =-STRESS in cart. coord.  units (eV):
  Direction    XX          YY          ZZ          XY          YZ          ZX
  --------------------------------------------------------------------------------------
  Alpha Z   907.96410   907.96410   907.96410
  Ewald  157329.00052157329.00052************     0.00000     0.00000    -0.00000
  Hartree167739.15279167739.15279************    -0.00000    -0.00000    -0.00000
  E(xc)   -2500.72904 -2500.72904 -2504.66855    -0.00000     0.00000     0.00000
  Local  ************************334659.79664    -0.00000    -0.00000    -0.00000
  n-local -2830.32335 -2831.14840 -2862.07702    -0.00000    -0.00000     0.00000
  augment  1054.02458  1054.02458  1044.17794     0.00000     0.00000    -0.00000
  Kinetic  7493.57865  7496.20359  7517.87484     0.00001     0.00001    -0.00001
  Fock        0.00000     0.00000     0.00000     0.00000     0.00000     0.00000
  vdW        -5.36748    -5.36748    -4.42682    -0.00000     0.00000    -0.00000
  -------------------------------------------------------------------------------------
  Total     -24.20705   -24.20705    -1.00794     0.00000     0.00000     0.00000
  in kB     -25.51880   -25.51880    -1.06256     0.00000     0.00000     0.00000
  external pressure =      -17.37 kB  Pullay stress =        0.00 kB


 VOLUME and BASIS-vectors are now :
 -----------------------------------------------------------------------------
  energy-cutoff  :      600.00
  volume of cell :     1519.82
      direct lattice vectors                 reciprocal lattice vectors
     8.440984654  0.000000000  0.000000000     0.118469591  0.000000000  0.000000000
     0.000000000  8.440984654  0.000000000     0.000000000  0.118469591  0.000000000
     0.000000000  0.000000000 21.330738491     0.000000000  0.000000000  0.046880702

  length of vectors
     8.440984654  8.440984654 21.330738491     0.118469591  0.118469591  0.046880702


 FORCES acting on ions:
    Electron-Ion                     Ewald-Force                    Non-Local-Force
 -----------------------------------------------------------------------------------------------
   0.903E-13 -.498E-12 -.806E+03   0.888E-14 -.266E-14 0.780E+03   0.165E-23 -.331E-23 0.269E+02
   0.365E-12 0.377E-12 -.140E+04   0.133E-14 -.311E-14 0.146E+04   -.265E-22 0.000E+00 -.598E+02
   -.573E-13 -.115E+00 0.208E+04   0.560E-13 0.116E+00 -.207E+04   0.000E+00 -.250E-03 -.704E+01
   0.115E+00 -.330E-12 0.208E+04   -.116E+00 0.671E-13 -.207E+04   0.250E-03 0.199E-22 -.704E+01
   -.566E-13 0.495E-12 0.712E+03   -.150E-10 0.150E-10 -.712E+03   0.000E+00 -.132E-22 0.501E+00
   0.384E+00 -.384E+00 0.713E+03   -.380E+00 0.380E+00 -.713E+03   -.247E-02 0.247E-02 0.527E+00
   -.423E-13 -.258E+01 -.643E+03   0.157E-11 0.257E+01 0.644E+03   0.662E-23 0.147E-01 -.161E+00
   0.258E+01 0.162E-12 -.643E+03   -.257E+01 -.151E-11 0.644E+03   -.147E-01 -.529E-22 -.161E+00
   -.438E-13 0.317E-12 -.200E+04   0.444E-12 -.416E-12 0.200E+04   -.265E-22 0.529E-22 0.597E+01
   0.163E+02 -.163E+02 -.198E+04   -.164E+02 0.164E+02 0.198E+04   0.850E-01 -.850E-01 0.605E+01
   -.536E-13 0.115E+00 0.208E+04   -.277E-12 -.116E+00 -.207E+04   -.265E-22 0.250E-03 -.704E+01
   0.107E+00 0.384E-12 0.208E+04   -.105E+00 0.131E-10 -.207E+04   -.175E-02 0.000E+00 -.704E+01
   -.485E-13 0.156E-11 0.713E+03   -.165E-10 0.000E+00 -.713E+03   0.000E+00 0.000E+00 0.465E+00
   0.384E+00 0.384E+00 0.713E+03   -.380E+00 -.380E+00 -.713E+03   -.247E-02 -.247E-02 0.527E+00
   -.395E-13 0.258E+01 -.643E+03   0.304E-11 -.257E+01 0.644E+03   -.331E-22 -.147E-01 -.161E+00
   0.350E+01 0.137E-11 -.637E+03   -.343E+01 0.178E-14 0.638E+03   -.758E-01 0.000E+00 -.268E+00
   -.367E-13 0.106E-11 -.199E+04   -.355E-13 -.995E-13 0.198E+04   0.132E-22 0.000E+00 0.597E+01
   0.163E+02 0.163E+02 -.198E+04   -.164E+02 -.164E+02 0.198E+04   0.850E-01 0.850E-01 0.605E+01
   0.898E-12 -.107E+00 0.208E+04   -.129E-10 0.105E+00 -.207E+04   -.662E-23 0.175E-02 -.704E+01
   -.115E+00 -.311E-12 0.208E+04   0.116E+00 0.471E-13 -.207E+04   -.250E-03 0.116E-22 -.704E+01
   0.826E-12 0.714E-12 0.713E+03   0.145E-11 0.150E-10 -.713E+03   0.132E-22 0.265E-22 0.465E+00
   -.384E+00 -.384E+00 0.713E+03   0.380E+00 0.380E+00 -.713E+03   0.247E-02 0.247E-02 0.527E+00
   0.814E-12 -.350E+01 -.637E+03   -.141E-11 0.343E+01 0.638E+03   -.232E-22 0.758E-01 -.268E+00
   -.258E+01 0.141E-12 -.643E+03   0.257E+01 -.156E-11 0.644E+03   0.147E-01 0.000E+00 -.161E+00
   0.880E-12 -.127E-11 -.199E+04   0.782E-13 -.355E-14 0.198E+04   -.132E-22 0.000E+00 0.597E+01
   -.163E+02 -.163E+02 -.198E+04   0.164E+02 0.164E+02 0.198E+04   -.850E-01 -.850E-01 0.605E+01
   0.890E-12 0.107E+00 0.208E+04   -.131E-10 -.105E+00 -.207E+04   0.000E+00 -.175E-02 -.704E+01
   -.107E+00 -.189E-12 0.208E+04   0.105E+00 0.131E-10 -.207E+04   0.175E-02 0.000E+00 -.704E+01
   0.862E-12 0.307E-11 0.713E+03   -.782E-13 0.355E-14 -.713E+03   0.000E+00 0.000E+00 0.601E+00
   -.384E+00 0.384E+00 0.713E+03   0.380E+00 -.380E+00 -.713E+03   0.247E-02 -.247E-02 0.527E+00
   0.805E-12 0.350E+01 -.637E+03   -.284E-13 -.343E+01 0.638E+03   -.265E-22 -.758E-01 -.268E+00
   -.350E+01 -.139E-11 -.637E+03   0.343E+01 0.000E+00 0.638E+03   0.758E-01 0.000E+00 -.268E+00
   0.887E-12 -.219E-12 -.193E+04   -.426E-13 -.391E-13 0.192E+04   0.132E-22 0.000E+00 0.454E+01
   -.163E+02 0.163E+02 -.198E+04   0.164E+02 -.164E+02 0.198E+04   -.850E-01 0.850E-01 0.605E+01
   -.619E-13 -.353E+00 0.534E+03   0.409E-13 0.348E+00 -.534E+03   0.265E-22 0.670E-02 -.909E-01
   0.353E+00 -.104E-12 0.534E+03   -.348E+00 0.391E-13 -.534E+03   -.670E-02 0.397E-22 -.909E-01
   -.348E-13 0.788E-12 0.156E+04   0.853E-11 -.844E-11 -.156E+04   0.000E+00 0.000E+00 0.349E+01
   0.827E-01 -.827E-01 0.156E+04   -.820E-01 0.820E-01 -.156E+04   -.998E-03 0.998E-03 0.349E+01
   -.457E-13 -.683E+01 -.152E+04   -.871E-12 0.677E+01 0.153E+04   0.132E-22 0.541E-01 -.503E+01
   0.683E+01 0.397E-12 -.152E+04   -.677E+01 0.881E-12 0.153E+04   -.541E-01 0.000E+00 -.503E+01
   -.571E-13 -.259E-12 -.479E+03   -.853E-13 0.639E-13 0.479E+03   0.000E+00 -.132E-22 0.256E+00
   0.225E+01 -.225E+01 -.474E+03   -.224E+01 0.224E+01 0.474E+03   -.601E-02 0.601E-02 0.325E+00
   -.640E-13 0.353E+00 0.534E+03   0.142E-13 -.348E+00 -.534E+03   0.132E-22 -.670E-02 -.909E-01
   0.299E+00 0.512E-12 0.534E+03   -.325E+00 -.764E-11 -.534E+03   0.358E-01 0.000E+00 -.111E+00
   -.489E-13 0.131E-11 0.156E+04   0.845E-11 -.796E-12 -.156E+04   0.000E+00 -.620E-24 0.349E+01
   0.827E-01 0.827E-01 0.156E+04   -.820E-01 -.820E-01 -.156E+04   -.998E-03 -.998E-03 0.349E+01
   -.425E-13 0.683E+01 -.152E+04   -.774E-12 -.677E+01 0.153E+04   -.132E-22 -.541E-01 -.503E+01
   0.206E+02 0.149E-11 -.149E+04   -.203E+02 0.810E-11 0.150E+04   -.255E+00 0.000E+00 -.500E+01
   -.386E-13 -.207E-12 -.474E+03   -.741E-11 0.711E-14 0.474E+03   -.248E-23 0.000E+00 0.282E+00
   0.225E+01 0.225E+01 -.474E+03   -.224E+01 -.224E+01 0.474E+03   -.601E-02 -.601E-02 0.325E+00
   0.324E-12 -.299E+00 0.534E+03   0.764E-11 0.325E+00 -.534E+03   0.000E+00 -.358E-01 -.111E+00
   -.353E+00 -.741E-13 0.534E+03   0.348E+00 0.142E-13 -.534E+03   0.670E-02 0.331E-22 -.909E-01
   0.364E-12 0.000E+00 0.156E+04   0.845E-12 -.846E-11 -.156E+04   0.000E+00 0.529E-22 0.349E+01
   -.827E-01 -.827E-01 0.156E+04   0.820E-01 0.820E-01 -.156E+04   0.998E-03 0.998E-03 0.349E+01
   0.338E-12 -.206E+02 -.149E+04   -.816E-11 0.203E+02 0.150E+04   -.993E-23 0.255E+00 -.500E+01
   -.683E+01 0.478E-12 -.152E+04   0.677E+01 0.924E-12 0.153E+04   0.541E-01 0.000E+00 -.503E+01
   0.309E-12 -.192E-12 -.474E+03   -.711E-14 0.738E-11 0.474E+03   0.132E-22 -.265E-22 0.282E+00
   -.225E+01 -.225E+01 -.474E+03   0.224E+01 0.224E+01 0.474E+03   0.601E-02 0.601E-02 0.325E+00
   0.333E-12 0.299E+00 0.534E+03   0.763E-11 -.325E+00 -.534E+03   0.744E-23 0.358E-01 -.111E+00
   -.299E+00 0.149E-11 0.534E+03   0.325E+00 -.769E-11 -.534E+03   -.358E-01 0.165E-22 -.111E+00
   0.356E-12 0.350E-12 0.156E+04   0.824E-12 -.838E-12 -.156E+04   -.265E-22 0.000E+00 0.348E+01
   -.827E-01 0.827E-01 0.156E+04   0.820E-01 -.820E-01 -.156E+04   0.998E-03 -.998E-03 0.349E+01
   0.348E-12 0.206E+02 -.149E+04   -.820E-11 -.203E+02 0.150E+04   0.000E+00 -.255E+00 -.500E+01
   -.206E+02 -.118E-11 -.149E+04   0.203E+02 0.819E-11 0.150E+04   0.255E+00 0.000E+00 -.500E+01
   0.328E-12 0.350E-12 -.475E+03   -.497E-13 0.426E-13 0.475E+03   0.331E-23 0.000E+00 -.187E+00
   -.225E+01 0.225E+01 -.474E+03   0.224E+01 -.224E+01 0.474E+03   0.601E-02 -.601E-02 0.325E+00
 -----------------------------------------------------------------------------------------------
   0.259E-10 0.217E-10 0.512E+02   0.937E-13 -.333E-13 0.284E-11   -.130E-16 -.147E-16 -.512E+02


 POSITION                                       TOTAL-FORCE (eV/Angst)
 -----------------------------------------------------------------------------------
      4.22049      4.22049     16.45814         0.000000      0.000000      0.278717
      4.22049      4.22049     17.60496         0.000000      0.000000     -0.411318
      0.00000      6.33074      7.50000         0.000000      0.000048      0.350002
      2.11025      0.00000      7.50000        -0.000048      0.000000      0.350002
      0.00000      0.00000      9.61025         0.000000      0.000000      0.030979
      2.11025      6.33074      9.61025         0.001474     -0.001474      0.032899
      0.00000      6.33023     11.73368         0.000000      0.000346      0.035010
      2.11076      0.00000     11.73368        -0.000346      0.000000      0.035010
      0.00000      0.00000     13.83822         0.000000      0.000000     -0.015035
      2.10905      6.33193     13.83447        -0.005012      0.005012     -0.014381
      0.00000      2.11025      7.50000         0.000000     -0.000048      0.350002
      2.11025      4.22049      7.50000         0.000570      0.000000      0.350054
      0.00000      4.22049      9.61025         0.000000      0.000000      0.039562
      2.11025      2.11025      9.61025         0.001474      0.001474      0.032899
      0.00000      2.11076     11.73368         0.000000     -0.000346      0.035010
      2.11344      4.22049     11.73659        -0.005435      0.000000      0.038086
      0.00000      4.22049     13.83544         0.000000      0.000000     -0.016687
      2.10905      2.10905     13.83447        -0.005012     -0.005012     -0.014381
      4.22049      6.33074      7.50000         0.000000     -0.000570      0.350054
      6.33074      0.00000      7.50000         0.000048      0.000000      0.350002
      4.22049      0.00000      9.61025         0.000000      0.000000      0.039562
      6.33074      6.33074      9.61025        -0.001474     -0.001474      0.032899
      4.22049      6.32754     11.73659         0.000000      0.005435      0.038086
      6.33023      0.00000     11.73368         0.000346      0.000000      0.035010
      4.22049      0.00000     13.83544         0.000000      0.000000     -0.016687
      6.33193      6.33193     13.83447         0.005012      0.005012     -0.014381
      4.22049      2.11025      7.50000         0.000000      0.000570      0.350054
      6.33074      4.22049      7.50000        -0.000570      0.000000      0.350054
      4.22049      4.22049      9.61025         0.000000      0.000000      0.044847
      6.33074      2.11025      9.61025        -0.001474      0.001474      0.032899
      4.22049      2.11344     11.73659         0.000000     -0.005435      0.038086
      6.32754      4.22049     11.73659         0.005435      0.000000      0.038086
      4.22049      4.22049     13.87814         0.000000      0.000000      0.139288
      6.33193      2.10905     13.83447         0.005012     -0.005012     -0.014381
      0.00000      6.33074      9.61025         0.000000      0.001999      0.064328
      2.11025      0.00000      9.61025        -0.001999      0.000000      0.064328
      0.00000      0.00000      7.50000         0.000000      0.000000     -0.516863
      2.11025      6.33074      7.50000        -0.000282      0.000282     -0.516594
      0.00000      6.33258     13.88587         0.000000     -0.002232      0.018771
      2.10840      0.00000     13.88587         0.002232      0.000000      0.018771
      0.00000      0.00000     11.72785         0.000000      0.000000      0.018243
      2.10979      6.33120     11.72890         0.003321     -0.003321      0.011826
      0.00000      2.11025      9.61025         0.000000     -0.001999      0.064328
      2.11025      4.22049      9.61025         0.009340      0.000000      0.073292
      0.00000      4.22049      7.50000         0.000000      0.000000     -0.516693
      2.11025      2.11025      7.50000        -0.000282     -0.000282     -0.516594
      0.00000      2.10840     13.88587         0.000000      0.002232      0.018771
      2.10031      4.22049     13.88381         0.020094      0.000000      0.029640
      0.00000      4.22049     11.72684         0.000000      0.000000      0.016626
      2.10979      2.10979     11.72890         0.003321      0.003321      0.011826
      4.22049      6.33074      9.61025         0.000000     -0.009340      0.073292
      6.33074      0.00000      9.61025         0.001999      0.000000      0.064328
      4.22049      0.00000      7.50000         0.000000      0.000000     -0.516693
      6.33074      6.33074      7.50000         0.000282      0.000282     -0.516594
      4.22049      6.34068     13.88381         0.000000     -0.020094      0.029640
      6.33258      0.00000     13.88587        -0.002232      0.000000      0.018771
      4.22049      0.00000     11.72684         0.000000      0.000000      0.016626
      6.33120      6.33120     11.72890        -0.003321     -0.003321      0.011826
      4.22049      2.11025      9.61025         0.000000      0.009340      0.073292
      6.33074      4.22049      9.61025        -0.009340      0.000000      0.073292
      4.22049      4.22049      7.50000         0.000000      0.000000     -0.517264
      6.33074      2.11025      7.50000         0.000282     -0.000282     -0.516594
      4.22049      2.10031     13.88381         0.000000      0.020094      0.029640
      6.34068      4.22049     13.88381        -0.020094      0.000000      0.029640
      4.22049      4.22049     11.73684         0.000000      0.000000      0.011059
      6.33120      2.10979     11.72890        -0.003321      0.003321      0.011826
 -----------------------------------------------------------------------------------
    total drift:                                0.000000      0.000000     -0.014031


--------------------------------------------------------------------------------------------------------



  FREE ENERGIE OF THE ION-ELECTRON SYSTEM (eV)
  ---------------------------------------------------
  free  energy   TOTEN  =      -390.79880664 eV

  energy  without entropy=     -390.79880664  energy(sigma->0) =     -390.79880664



--------------------------------------------------------------------------------------------------------


    POTLOK:  cpu time      0.2308: real time      0.2308


--------------------------------------------------------------------------------------------------------


     LOOP+:  cpu time     47.2980: real time     47.5893
    4ORBIT:  cpu time      0.0000: real time      0.0000

 total amount of memory used by VASP MPI-rank0    78528. kBytes
=======================================================================

   base      :      30000. kBytes
   nonl-proj :      29343. kBytes
   fftplans  :       3857. kBytes
   grid      :       5885. kBytes
   one-center:        137. kBytes
   wavefun   :       9306. kBytes

  
  
 General timing and accounting informations for this job:
 ========================================================
  
                  Total CPU time used (sec):       65.248
                            User time (sec):       63.079
                          System time (sec):        2.169
                         Elapsed time (sec):       70.127
  
                   Maximum memory used (kb):      177228.
                   Average memory used (kb):          N/A
  
                          Minor page faults:        31265
                          Major page faults:           53
                 Voluntary context switches:         7099
