 **********************************************************************
                          MRCC program system
 **********************************************************************
 
                              Written by
     Mihaly Kallay, Peter R. Nagy, David Mester, Laszlo Gyevi-Nagy,
        Jozsef Csoka, P. Bernat Szabo, Zoltan Rolik, Gyula Samu,
     Jozsef Csontos, Bence Hegely, Adam Ganyecz, Istvan Ladjanszki,
       Lorant Szegedy, Bence Ladoczki, Klara Petrov, Mate Farkas,
                    Pal D. Mezei, and Reka A. Horvath
 
        Department of Physical Chemistry and Materials Science
            Budapest University of Technology and Economics
                  Budapest P.O.Box 91, H-1521 Hungary
 
                              www.mrcc.hu
 
                      Release date: March 18, 2022

 ************************ 2023-04-26 04:28:20 *************************
 Executing minp...

 Reading input from MINP...
 
 Input file:
 
calc=DF-MP2
scftype=rhf
verbosity=3
mem=200GB
symm=off
unit=angs
scfiguess=small
scfmaxit=1000
scfalg=locfit1



charge=-32
core=94

basis=special
cc-pVTZ
aug-cc-pVTZ
aug-cc-pVTZ
aug-cc-pVTZ
aug-cc-pVTZ
aug-cc-pVTZ
cc-pVTZ
cc-pVTZ
cc-pVTZ
cc-pVTZ
cc-pVTZ
cc-pVTZ
cc-pVTZ
cc-pVTZ
aug-cc-pVTZ
aug-cc-pVTZ
aug-cc-pVTZ
aug-cc-pVTZ
cc-pVTZ
cc-pVTZ
cc-pVTZ
cc-pVTZ
aug-cc-pVTZ
aug-cc-pVTZ
aug-cc-pVTZ
aug-cc-pVTZ
aug-cc-pVTZ
aug-cc-pVTZ
aug-cc-pVTZ
aug-cc-pVTZ
aug-cc-pVTZ
aug-cc-pVTZ
aug-cc-pVTZ
aug-cc-pVTZ
aug-cc-pVTZ
aug-cc-pVTZ
aug-cc-pVTZ
aug-cc-pVTZ
aug-cc-pVTZ
aug-cc-pVTZ
aug-cc-pVTZ
aug-cc-pVTZ
nothing
nothing
nothing
nothing
nothing
nothing
nothing
nothing
nothing
nothing
nothing
nothing
nothing
nothing
nothing
nothing
nothing
nothing
nothing
nothing
nothing
nothing
nothing
nothing
nothing
nothing
nothing
nothing
nothing
nothing
nothing
nothing
nothing
nothing
nothing
nothing
nothing
nothing
nothing
nothing
nothing
nothing
nothing
nothing
nothing
nothing
nothing
nothing
nothing
nothing
nothing
nothing
nothing
nothing
nothing
nothing
nothing
nothing
nothing
nothing
nothing
nothing
nothing
nothing
nothing
nothing
nothing
nothing
nothing
nothing
nothing
nothing
nothing
nothing
nothing
nothing
nothing

basis_sm=special
def2-SVP
def2-SVP
def2-SVP
def2-SVP
def2-SVP
def2-SVP
def2-SVP
def2-SVP
def2-SVP
def2-SVP
def2-SVP
def2-SVP
def2-SVP
def2-SVP
def2-SVP
def2-SVP
def2-SVP
def2-SVP
def2-SVP
def2-SVP
def2-SVP
def2-SVP
def2-SVP
def2-SVP
def2-SVP
def2-SVP
def2-SVP
def2-SVP
def2-SVP
def2-SVP
def2-SVP
def2-SVP
def2-SVP
def2-SVP
def2-SVP
def2-SVP
def2-SVP
def2-SVP
def2-SVP
def2-SVP
def2-SVP
def2-SVP
nothing
nothing
nothing
nothing
nothing
nothing
nothing
nothing
nothing
nothing
nothing
nothing
nothing
nothing
nothing
nothing
nothing
nothing
nothing
nothing
nothing
nothing
nothing
nothing
nothing
nothing
nothing
nothing
nothing
nothing
nothing
nothing
nothing
nothing
nothing
nothing
nothing
nothing
nothing
nothing
nothing
nothing
nothing
nothing
nothing
nothing
nothing
nothing
nothing
nothing
nothing
nothing
nothing
nothing
nothing
nothing
nothing
nothing
nothing
nothing
nothing
nothing
nothing
nothing
nothing
nothing
nothing
nothing
nothing
nothing
nothing
nothing
nothing
nothing
nothing
nothing
nothing

dfbasis_scf=special
def2-QZVPP-RI-JK
def2-QZVPP-RI-JK
def2-QZVPP-RI-JK
def2-QZVPP-RI-JK
def2-QZVPP-RI-JK
def2-QZVPP-RI-JK
def2-QZVPP-RI-JK
def2-QZVPP-RI-JK
def2-QZVPP-RI-JK
def2-QZVPP-RI-JK
def2-QZVPP-RI-JK
def2-QZVPP-RI-JK
def2-QZVPP-RI-JK
def2-QZVPP-RI-JK
def2-QZVPP-RI-JK
def2-QZVPP-RI-JK
def2-QZVPP-RI-JK
def2-QZVPP-RI-JK
def2-QZVPP-RI-JK
def2-QZVPP-RI-JK
def2-QZVPP-RI-JK
def2-QZVPP-RI-JK
def2-QZVPP-RI-JK
def2-QZVPP-RI-JK
def2-QZVPP-RI-JK
def2-QZVPP-RI-JK
def2-QZVPP-RI-JK
def2-QZVPP-RI-JK
def2-QZVPP-RI-JK
def2-QZVPP-RI-JK
def2-QZVPP-RI-JK
def2-QZVPP-RI-JK
def2-QZVPP-RI-JK
def2-QZVPP-RI-JK
def2-QZVPP-RI-JK
def2-QZVPP-RI-JK
def2-QZVPP-RI-JK
def2-QZVPP-RI-JK
def2-QZVPP-RI-JK
def2-QZVPP-RI-JK
def2-QZVPP-RI-JK
def2-QZVPP-RI-JK
nothing
nothing
nothing
nothing
nothing
nothing
nothing
nothing
nothing
nothing
nothing
nothing
nothing
nothing
nothing
nothing
nothing
nothing
nothing
nothing
nothing
nothing
nothing
nothing
nothing
nothing
nothing
nothing
nothing
nothing
nothing
nothing
nothing
nothing
nothing
nothing
nothing
nothing
nothing
nothing
nothing
nothing
nothing
nothing
nothing
nothing
nothing
nothing
nothing
nothing
nothing
nothing
nothing
nothing
nothing
nothing
nothing
nothing
nothing
nothing
nothing
nothing
nothing
nothing
nothing
nothing
nothing
nothing
nothing
nothing
nothing
nothing
nothing
nothing
nothing
nothing
nothing

dfbasis_cor=special
cc-pVTZ-RI
aug-cc-pVTZ-RI
aug-cc-pVTZ-RI
aug-cc-pVTZ-RI
aug-cc-pVTZ-RI
aug-cc-pVTZ-RI
cc-pVTZ-RI
cc-pVTZ-RI
cc-pVTZ-RI
cc-pVTZ-RI
cc-pVTZ-RI
cc-pVTZ-RI
cc-pVTZ-RI
cc-pVTZ-RI
aug-cc-pVTZ-RI
aug-cc-pVTZ-RI
aug-cc-pVTZ-RI
aug-cc-pVTZ-RI
cc-pVTZ-RI
cc-pVTZ-RI
cc-pVTZ-RI
cc-pVTZ-RI
aug-cc-pVTZ-RI
aug-cc-pVTZ-RI
aug-cc-pVTZ-RI
aug-cc-pVTZ-RI
aug-cc-pVTZ-RI
aug-cc-pVTZ-RI
aug-cc-pVTZ-RI
aug-cc-pVTZ-RI
aug-cc-pVTZ-RI
aug-cc-pVTZ-RI
aug-cc-pVTZ-RI
aug-cc-pVTZ-RI
aug-cc-pVTZ-RI
aug-cc-pVTZ-RI
aug-cc-pVTZ-RI
aug-cc-pVTZ-RI
aug-cc-pVTZ-RI
aug-cc-pVTZ-RI
aug-cc-pVTZ-RI
aug-cc-pVTZ-RI
nothing
nothing
nothing
nothing
nothing
nothing
nothing
nothing
nothing
nothing
nothing
nothing
nothing
nothing
nothing
nothing
nothing
nothing
nothing
nothing
nothing
nothing
nothing
nothing
nothing
nothing
nothing
nothing
nothing
nothing
nothing
nothing
nothing
nothing
nothing
nothing
nothing
nothing
nothing
nothing
nothing
nothing
nothing
nothing
nothing
nothing
nothing
nothing
nothing
nothing
nothing
nothing
nothing
nothing
nothing
nothing
nothing
nothing
nothing
nothing
nothing
nothing
nothing
nothing
nothing
nothing
nothing
nothing
nothing
nothing
nothing
nothing
nothing
nothing
nothing
nothing
nothing

ecp=special
none
none
none
none
none
none
none
none
none
none
none
none
none
none
none
none
none
none
none
none
none
none
none
none
none
none
none
none
none
none
none
none
none
none
none
none
none
none
none
none
none
none
ECP-12
ECP-12
ECP-12
ECP-12
ECP-12
ECP-12
ECP-12
ECP-12
ECP-12
ECP-12
ECP-12
ECP-12
ECP-12
ECP-12
ECP-12
ECP-12
ECP-12
ECP-12
ECP-12
ECP-12
ECP-12
ECP-12
ECP-12
ECP-12
ECP-12
ECP-12
ECP-12
ECP-12
ECP-12
ECP-12
ECP-12
ECP-12
ECP-12
ECP-12
ECP-12
ECP-12
ECP-12
ECP-12
ECP-12
ECP-12
ECP-12
ECP-12
ECP-12
ECP-12
ECP-12
ECP-12
ECP-12
ECP-12
ECP-12
ECP-12
ECP-12
ECP-12
ECP-12
ECP-12
ECP-12
ECP-12
ECP-12
ECP-12
ECP-12
ECP-12
ECP-12
ECP-12
ECP-12
ECP-12
ECP-12
ECP-12
ECP-12
ECP-12
ECP-12
ECP-12
ECP-12
ECP-12
ECP-12
ECP-12
ECP-12
ECP-12
ECP-12

unit=angs
geom=xyz
119
C1 O1 Mg13 O29 ECP77
Mg    0.00000000000    0.00000000000   -0.00772802266
O    -2.12018425659    0.00000000000   -0.00205593177
O     0.00000000000    2.12018425659   -0.00205593177
O     2.12018425659    0.00000000000   -0.00205593177
O     0.00000000000   -2.12018425659   -0.00205593177
O     0.00000000000    0.00000000000   -2.14902768389
Mg   -2.11144262254    2.11144262254   -0.05140086690
Mg    2.11144262254    2.11144262254   -0.05140086690
Mg    2.11144262254   -2.11144262254   -0.05140086690
Mg   -2.11144262254   -2.11144262254   -0.05140086690
Mg   -2.10705287155    0.00000000000   -2.14928009216
Mg    0.00000000000    2.10705287155   -2.14928009216
Mg    2.10705287155    0.00000000000   -2.14928009216
Mg    0.00000000000   -2.10705287155   -2.14928009216
O    -2.11070451449    2.11070451449   -2.15696791928
O     2.11070451449    2.11070451449   -2.15696791928
O     2.11070451449   -2.11070451449   -2.15696791928
O    -2.11070451449   -2.11070451449   -2.15696791928
Mg   -4.22049352791    0.00000000000   -0.05042534122
Mg    0.00000000000    4.22049352791   -0.05042534122
Mg    4.22049352791    0.00000000000   -0.05042534122
Mg    0.00000000000   -4.22049352791   -0.05042534122
O    -4.22049352791    2.11209139723    0.00000000000
O    -2.11209139723    4.22049352791    0.00000000000
O     2.11209139723    4.22049352791    0.00000000000
O     4.22049352791    2.11209139723    0.00000000000
O     4.22049352791   -2.11209139723    0.00000000000
O     2.11209139723   -4.22049352791    0.00000000000
O    -2.11209139723   -4.22049352791    0.00000000000
O    -4.22049352791   -2.11209139723    0.00000000000
O    -4.22049352791    0.00000000000   -2.15902521756
O     0.00000000000    4.22049352791   -2.15902521756
O     4.22049352791    0.00000000000   -2.15902521756
O     0.00000000000   -4.22049352791   -2.15902521756
O    -2.11024676395    0.00000000000   -4.27562330794
O     0.00000000000    2.11024676395   -4.27562330794
O     2.11024676395    0.00000000000   -4.27562330794
O     0.00000000000   -2.11024676395   -4.27562330794
O    -6.32080279923    0.00000000000   -0.00205593177
O     0.00000000000    6.32080279923   -0.00205593177
O     6.32080279923    0.00000000000   -0.00205593177
O     0.00000000000   -6.32080279923   -0.00205593177
Mg    0.00000000000    0.00000000000   -4.27562330794
Mg   -4.22049352791    2.10973412517   -2.15218714568
Mg   -2.10973412517    4.22049352791   -2.15218714568
Mg    2.10973412517    4.22049352791   -2.15218714568
Mg    4.22049352791    2.10973412517   -2.15218714568
Mg    4.22049352791   -2.10973412517   -2.15218714568
Mg    2.10973412517   -4.22049352791   -2.15218714568
Mg   -2.10973412517   -4.22049352791   -2.15218714568
Mg   -4.22049352791   -2.10973412517   -2.15218714568
Mg   -2.11024676395    2.11024676395   -4.27562330794
Mg    2.11024676395    2.11024676395   -4.27562330794
Mg    2.11024676395   -2.11024676395   -4.27562330794
Mg   -2.11024676395   -2.11024676395   -4.27562330794
Mg   -4.22049352791    4.22049352791   -0.04765173215
Mg    4.22049352791    4.22049352791   -0.04765173215
Mg    4.22049352791   -4.22049352791   -0.04765173215
Mg   -4.22049352791   -4.22049352791   -0.04765173215
Mg   -4.22049352791    0.00000000000   -4.27562330794
Mg    0.00000000000    4.22049352791   -4.27562330794
Mg    4.22049352791    0.00000000000   -4.27562330794
Mg    0.00000000000   -4.22049352791   -4.27562330794
Mg   -6.32954443328    2.11144262254   -0.05140086690
Mg   -2.11144262254    6.32954443328   -0.05140086690
Mg    2.11144262254    6.32954443328   -0.05140086690
Mg    6.32954443328    2.11144262254   -0.05140086690
Mg    6.32954443328   -2.11144262254   -0.05140086690
Mg    2.11144262254   -6.32954443328   -0.05140086690
Mg   -2.11144262254   -6.32954443328   -0.05140086690
Mg   -6.32954443328   -2.11144262254   -0.05140086690
Mg   -6.33393418427    0.00000000000   -2.14928009216
Mg    0.00000000000    6.33393418427   -2.14928009216
Mg    6.33393418427    0.00000000000   -2.14928009216
Mg    0.00000000000   -6.33393418427   -2.14928009216
Mg   -2.11024676395    0.00000000000   -6.38587007189
Mg    0.00000000000    2.11024676395   -6.38587007189
Mg    2.11024676395    0.00000000000   -6.38587007189
Mg    0.00000000000   -2.11024676395   -6.38587007189
Mg   -4.22049352791    4.22049352791   -4.27562330794
Mg    4.22049352791    4.22049352791   -4.27562330794
Mg    4.22049352791   -4.22049352791   -4.27562330794
Mg   -4.22049352791   -4.22049352791   -4.27562330794
Mg   -6.33125293065    4.22049352791   -2.15218714568
Mg   -4.22049352791    6.33125293065   -2.15218714568
Mg    4.22049352791    6.33125293065   -2.15218714568
Mg    6.33125293065    4.22049352791   -2.15218714568
Mg    6.33125293065   -4.22049352791   -2.15218714568
Mg    4.22049352791   -6.33125293065   -2.15218714568
Mg   -4.22049352791   -6.33125293065   -2.15218714568
Mg   -6.33125293065   -4.22049352791   -2.15218714568
Mg   -6.33074029186    2.11024676395   -4.27562330794
Mg   -2.11024676395    6.33074029186   -4.27562330794
Mg    2.11024676395    6.33074029186   -4.27562330794
Mg    6.33074029186    2.11024676395   -4.27562330794
Mg    6.33074029186   -2.11024676395   -4.27562330794
Mg    2.11024676395   -6.33074029186   -4.27562330794
Mg   -2.11024676395   -6.33074029186   -4.27562330794
Mg   -6.33074029186   -2.11024676395   -4.27562330794
Mg   -4.22049352791    2.11024676395   -6.38587007189
Mg   -2.11024676395    4.22049352791   -6.38587007189
Mg    2.11024676395    4.22049352791   -6.38587007189
Mg    4.22049352791    2.11024676395   -6.38587007189
Mg    4.22049352791   -2.11024676395   -6.38587007189
Mg    2.11024676395   -4.22049352791   -6.38587007189
Mg   -2.11024676395   -4.22049352791   -6.38587007189
Mg   -4.22049352791   -2.11024676395   -6.38587007189
Mg   -8.44098705582    0.00000000000   -0.00772802266
Mg    0.00000000000    8.44098705582   -0.00772802266
Mg    8.44098705582    0.00000000000   -0.00772802266
Mg    0.00000000000   -8.44098705582   -0.00772802266
Mg   -8.44098705582    2.10705287155   -2.14928009216
Mg   -2.10705287155    8.44098705582   -2.14928009216
Mg    2.10705287155    8.44098705582   -2.14928009216
Mg    8.44098705582    2.10705287155   -2.14928009216
Mg    8.44098705582   -2.10705287155   -2.14928009216
Mg    2.10705287155   -8.44098705582   -2.14928009216
Mg   -2.10705287155   -8.44098705582   -2.14928009216
Mg   -8.44098705582   -2.10705287155   -2.14928009216

qmmm=Amber
pointcharges
10149
      0.00000000000    0.00000000000   -4.27562330794    2.00000000000
     -4.22049352791    2.10973412517   -2.15218714568    2.00000000000
     -2.10973412517    4.22049352791   -2.15218714568    2.00000000000
      2.10973412517    4.22049352791   -2.15218714568    2.00000000000
      4.22049352791    2.10973412517   -2.15218714568    2.00000000000
      4.22049352791   -2.10973412517   -2.15218714568    2.00000000000
      2.10973412517   -4.22049352791   -2.15218714568    2.00000000000
     -2.10973412517   -4.22049352791   -2.15218714568    2.00000000000
     -4.22049352791   -2.10973412517   -2.15218714568    2.00000000000
     -2.11024676395    2.11024676395   -4.27562330794    2.00000000000
      2.11024676395    2.11024676395   -4.27562330794    2.00000000000
      2.11024676395   -2.11024676395   -4.27562330794    2.00000000000
     -2.11024676395   -2.11024676395   -4.27562330794    2.00000000000
     -4.22049352791    4.22049352791   -0.04765173215    2.00000000000
      4.22049352791    4.22049352791   -0.04765173215    2.00000000000
      4.22049352791   -4.22049352791   -0.04765173215    2.00000000000
     -4.22049352791   -4.22049352791   -0.04765173215    2.00000000000
     -4.22049352791    0.00000000000   -4.27562330794    2.00000000000
      0.00000000000    4.22049352791   -4.27562330794    2.00000000000
      4.22049352791    0.00000000000   -4.27562330794    2.00000000000
      0.00000000000   -4.22049352791   -4.27562330794    2.00000000000
     -4.22049352791    4.22049352791   -2.15801787533   -2.00000000000
      4.22049352791    4.22049352791   -2.15801787533   -2.00000000000
      4.22049352791   -4.22049352791   -2.15801787533   -2.00000000000
     -4.22049352791   -4.22049352791   -2.15801787533   -2.00000000000
     -4.22049352791    2.11024676395   -4.27562330794   -2.00000000000
     -2.11024676395    4.22049352791   -4.27562330794   -2.00000000000
      2.11024676395    4.22049352791   -4.27562330794   -2.00000000000
      4.22049352791    2.11024676395   -4.27562330794   -2.00000000000
      4.22049352791   -2.11024676395   -4.27562330794   -2.00000000000
      2.11024676395   -4.22049352791   -4.27562330794   -2.00000000000
     -2.11024676395   -4.22049352791   -4.27562330794   -2.00000000000
     -4.22049352791   -2.11024676395   -4.27562330794   -2.00000000000
      0.00000000000    0.00000000000   -6.38587007189   -2.00000000000
     -6.32954443328    2.11144262254   -0.05140086690    2.00000000000
     -2.11144262254    6.32954443328   -0.05140086690    2.00000000000
      2.11144262254    6.32954443328   -0.05140086690    2.00000000000
      6.32954443328    2.11144262254   -0.05140086690    2.00000000000
      6.32954443328   -2.11144262254   -0.05140086690    2.00000000000
      2.11144262254   -6.32954443328   -0.05140086690    2.00000000000
     -2.11144262254   -6.32954443328   -0.05140086690    2.00000000000
     -6.32954443328   -2.11144262254   -0.05140086690    2.00000000000
     -6.33393418427    0.00000000000   -2.14928009216    2.00000000000
      0.00000000000    6.33393418427   -2.14928009216    2.00000000000
      6.33393418427    0.00000000000   -2.14928009216    2.00000000000
      0.00000000000   -6.33393418427   -2.14928009216    2.00000000000
     -2.11024676395    0.00000000000   -6.38587007189    2.00000000000
      0.00000000000    2.11024676395   -6.38587007189    2.00000000000
      2.11024676395    0.00000000000   -6.38587007189    2.00000000000
      0.00000000000   -2.11024676395   -6.38587007189    2.00000000000
     -6.33028254133    2.11070451449   -2.15696791928   -2.00000000000
     -2.11070451449    6.33028254133   -2.15696791928   -2.00000000000
      2.11070451449    6.33028254133   -2.15696791928   -2.00000000000
      6.33028254133    2.11070451449   -2.15696791928   -2.00000000000
      6.33028254133   -2.11070451449   -2.15696791928   -2.00000000000
      2.11070451449   -6.33028254133   -2.15696791928   -2.00000000000
     -2.11070451449   -6.33028254133   -2.15696791928   -2.00000000000
     -6.33028254133   -2.11070451449   -2.15696791928   -2.00000000000
     -2.11024676395    2.11024676395   -6.38587007189   -2.00000000000
      2.11024676395    2.11024676395   -6.38587007189   -2.00000000000
      2.11024676395   -2.11024676395   -6.38587007189   -2.00000000000
     -2.11024676395   -2.11024676395   -6.38587007189   -2.00000000000
     -4.22049352791    4.22049352791   -4.27562330794    2.00000000000
      4.22049352791    4.22049352791   -4.27562330794    2.00000000000
      4.22049352791   -4.22049352791   -4.27562330794    2.00000000000
     -4.22049352791   -4.22049352791   -4.27562330794    2.00000000000
     -6.32889565859    4.22049352791    0.00000000000   -2.00000000000
     -4.22049352791    6.32889565859    0.00000000000   -2.00000000000
      4.22049352791    6.32889565859    0.00000000000   -2.00000000000
      6.32889565859    4.22049352791    0.00000000000   -2.00000000000
      6.32889565859   -4.22049352791    0.00000000000   -2.00000000000
      4.22049352791   -6.32889565859    0.00000000000   -2.00000000000
     -4.22049352791   -6.32889565859    0.00000000000   -2.00000000000
     -6.32889565859   -4.22049352791    0.00000000000   -2.00000000000
     -6.33074029186    0.00000000000   -4.27562330794   -2.00000000000
      0.00000000000    6.33074029186   -4.27562330794   -2.00000000000
      6.33074029186    0.00000000000   -4.27562330794   -2.00000000000
      0.00000000000   -6.33074029186   -4.27562330794   -2.00000000000
     -4.22049352791    0.00000000000   -6.38587007189   -2.00000000000
      0.00000000000    4.22049352791   -6.38587007189   -2.00000000000
      4.22049352791    0.00000000000   -6.38587007189   -2.00000000000
      0.00000000000   -4.22049352791   -6.38587007189   -2.00000000000
     -6.33125293065    4.22049352791   -2.15218714568    2.00000000000
     -4.22049352791    6.33125293065   -2.15218714568    2.00000000000
      4.22049352791    6.33125293065   -2.15218714568    2.00000000000
      6.33125293065    4.22049352791   -2.15218714568    2.00000000000
      6.33125293065   -4.22049352791   -2.15218714568    2.00000000000
      4.22049352791   -6.33125293065   -2.15218714568    2.00000000000
     -4.22049352791   -6.33125293065   -2.15218714568    2.00000000000
     -6.33125293065   -4.22049352791   -2.15218714568    2.00000000000
     -6.33074029186    2.11024676395   -4.27562330794    2.00000000000
     -2.11024676395    6.33074029186   -4.27562330794    2.00000000000
      2.11024676395    6.33074029186   -4.27562330794    2.00000000000
      6.33074029186    2.11024676395   -4.27562330794    2.00000000000
      6.33074029186   -2.11024676395   -4.27562330794    2.00000000000
      2.11024676395   -6.33074029186   -4.27562330794    2.00000000000
     -2.11024676395   -6.33074029186   -4.27562330794    2.00000000000
     -6.33074029186   -2.11024676395   -4.27562330794    2.00000000000
     -4.22049352791    2.11024676395   -6.38587007189    2.00000000000
     -2.11024676395    4.22049352791   -6.38587007189    2.00000000000
      2.11024676395    4.22049352791   -6.38587007189    2.00000000000
      4.22049352791    2.11024676395   -6.38587007189    2.00000000000
      4.22049352791   -2.11024676395   -6.38587007189    2.00000000000
      2.11024676395   -4.22049352791   -6.38587007189    2.00000000000
     -2.11024676395   -4.22049352791   -6.38587007189    2.00000000000
     -4.22049352791   -2.11024676395   -6.38587007189    2.00000000000
     -8.44098705582    0.00000000000   -0.00772802266    2.00000000000
      0.00000000000    8.44098705582   -0.00772802266    2.00000000000
      8.44098705582    0.00000000000   -0.00772802266    2.00000000000
      0.00000000000   -8.44098705582   -0.00772802266    2.00000000000
     -8.44098705582    2.12018425659   -0.00205593177   -2.00000000000
     -2.12018425659    8.44098705582   -0.00205593177   -2.00000000000
      2.12018425659    8.44098705582   -0.00205593177   -2.00000000000
      8.44098705582    2.12018425659   -0.00205593177   -2.00000000000
      8.44098705582   -2.12018425659   -0.00205593177   -2.00000000000
      2.12018425659   -8.44098705582   -0.00205593177   -2.00000000000
     -2.12018425659   -8.44098705582   -0.00205593177   -2.00000000000
     -8.44098705582   -2.12018425659   -0.00205593177   -2.00000000000
     -8.44098705582    0.00000000000   -2.14902768389   -2.00000000000
      0.00000000000    8.44098705582   -2.14902768389   -2.00000000000
      8.44098705582    0.00000000000   -2.14902768389   -2.00000000000
      0.00000000000   -8.44098705582   -2.14902768389   -2.00000000000
     -8.44098705582    2.10705287155   -2.14928009216    2.00000000000
     -2.10705287155    8.44098705582   -2.14928009216    2.00000000000
      2.10705287155    8.44098705582   -2.14928009216    2.00000000000
      8.44098705582    2.10705287155   -2.14928009216    2.00000000000
      8.44098705582   -2.10705287155   -2.14928009216    2.00000000000
      2.10705287155   -8.44098705582   -2.14928009216    2.00000000000
     -2.10705287155   -8.44098705582   -2.14928009216    2.00000000000
     -8.44098705582   -2.10705287155   -2.14928009216    2.00000000000
     -6.33074029186    4.22049352791   -4.27562330794   -2.00000000000
     -4.22049352791    6.33074029186   -4.27562330794   -2.00000000000
      4.22049352791    6.33074029186   -4.27562330794   -2.00000000000
      6.33074029186    4.22049352791   -4.27562330794   -2.00000000000
      6.33074029186   -4.22049352791   -4.27562330794   -2.00000000000
      4.22049352791   -6.33074029186   -4.27562330794   -2.00000000000
     -4.22049352791   -6.33074029186   -4.27562330794   -2.00000000000
     -6.33074029186   -4.22049352791   -4.27562330794   -2.00000000000
     -4.22049352791    4.22049352791   -6.38587007189   -2.00000000000
      4.22049352791    4.22049352791   -6.38587007189   -2.00000000000
      4.22049352791   -4.22049352791   -6.38587007189   -2.00000000000
     -4.22049352791   -4.22049352791   -6.38587007189   -2.00000000000
     -6.32954443328    6.32954443328   -0.05140086690    2.00000000000
      6.32954443328    6.32954443328   -0.05140086690    2.00000000000
      6.32954443328   -6.32954443328   -0.05140086690    2.00000000000
     -6.32954443328   -6.32954443328   -0.05140086690    2.00000000000
     -6.33074029186    0.00000000000   -6.38587007189    2.00000000000
      0.00000000000    6.33074029186   -6.38587007189    2.00000000000
      6.33074029186    0.00000000000   -6.38587007189    2.00000000000
      0.00000000000   -6.33074029186   -6.38587007189    2.00000000000
     -6.33028254133    6.33028254133   -2.15696791928   -2.00000000000
      6.33028254133    6.33028254133   -2.15696791928   -2.00000000000
      6.33028254133   -6.33028254133   -2.15696791928   -2.00000000000
     -6.33028254133   -6.33028254133   -2.15696791928   -2.00000000000
     -6.33074029186    2.11024676395   -6.38587007189   -2.00000000000
     -2.11024676395    6.33074029186   -6.38587007189   -2.00000000000
      2.11024676395    6.33074029186   -6.38587007189   -2.00000000000
      6.33074029186    2.11024676395   -6.38587007189   -2.00000000000
      6.33074029186   -2.11024676395   -6.38587007189   -2.00000000000
      2.11024676395   -6.33074029186   -6.38587007189   -2.00000000000
     -2.11024676395   -6.33074029186   -6.38587007189   -2.00000000000
     -6.33074029186   -2.11024676395   -6.38587007189   -2.00000000000
     -8.44098705582    4.22049352791   -0.05042534122    2.00000000000
     -4.22049352791    8.44098705582   -0.05042534122    2.00000000000
      4.22049352791    8.44098705582   -0.05042534122    2.00000000000
      8.44098705582    4.22049352791   -0.05042534122    2.00000000000
      8.44098705582   -4.22049352791   -0.05042534122    2.00000000000
      4.22049352791   -8.44098705582   -0.05042534122    2.00000000000
     -4.22049352791   -8.44098705582   -0.05042534122    2.00000000000
     -8.44098705582   -4.22049352791   -0.05042534122    2.00000000000
     -8.44098705582    0.00000000000   -4.27562330794    2.00000000000
      0.00000000000    8.44098705582   -4.27562330794    2.00000000000
      8.44098705582    0.00000000000   -4.27562330794    2.00000000000
      0.00000000000   -8.44098705582   -4.27562330794    2.00000000000
     -8.44098705582    4.22049352791   -2.15902521756   -2.00000000000
     -4.22049352791    8.44098705582   -2.15902521756   -2.00000000000
      4.22049352791    8.44098705582   -2.15902521756   -2.00000000000
      8.44098705582    4.22049352791   -2.15902521756   -2.00000000000
      8.44098705582   -4.22049352791   -2.15902521756   -2.00000000000
      4.22049352791   -8.44098705582   -2.15902521756   -2.00000000000
     -4.22049352791   -8.44098705582   -2.15902521756   -2.00000000000
     -8.44098705582   -4.22049352791   -2.15902521756   -2.00000000000
     -8.44098705582    2.11024676395   -4.27562330794   -2.00000000000
     -2.11024676395    8.44098705582   -4.27562330794   -2.00000000000
      2.11024676395    8.44098705582   -4.27562330794   -2.00000000000
      8.44098705582    2.11024676395   -4.27562330794   -2.00000000000
      8.44098705582   -2.11024676395   -4.27562330794   -2.00000000000
      2.11024676395   -8.44098705582   -4.27562330794   -2.00000000000
     -2.11024676395   -8.44098705582   -4.27562330794   -2.00000000000
     -8.44098705582   -2.11024676395   -4.27562330794   -2.00000000000
     -6.33074029186    6.33074029186   -4.27562330794    2.00000000000
      6.33074029186    6.33074029186   -4.27562330794    2.00000000000
      6.33074029186   -6.33074029186   -4.27562330794    2.00000000000
     -6.33074029186   -6.33074029186   -4.27562330794    2.00000000000
     -6.33074029186    4.22049352791   -6.38587007189    2.00000000000
     -4.22049352791    6.33074029186   -6.38587007189    2.00000000000
      4.22049352791    6.33074029186   -6.38587007189    2.00000000000
      6.33074029186    4.22049352791   -6.38587007189    2.00000000000
      6.33074029186   -4.22049352791   -6.38587007189    2.00000000000
      4.22049352791   -6.33074029186   -6.38587007189    2.00000000000
     -4.22049352791   -6.33074029186   -6.38587007189    2.00000000000
     -6.33074029186   -4.22049352791   -6.38587007189    2.00000000000
     -8.44098705582    4.22049352791   -4.27562330794    2.00000000000
     -4.22049352791    8.44098705582   -4.27562330794    2.00000000000
      4.22049352791    8.44098705582   -4.27562330794    2.00000000000
      8.44098705582    4.22049352791   -4.27562330794    2.00000000000
      8.44098705582   -4.22049352791   -4.27562330794    2.00000000000
      4.22049352791   -8.44098705582   -4.27562330794    2.00000000000
     -4.22049352791   -8.44098705582   -4.27562330794    2.00000000000
     -8.44098705582   -4.22049352791   -4.27562330794    2.00000000000
     -8.44098705582    6.32080279923   -0.00205593177   -2.00000000000
     -6.32080279923    8.44098705582   -0.00205593177   -2.00000000000
      6.32080279923    8.44098705582   -0.00205593177   -2.00000000000
      8.44098705582    6.32080279923   -0.00205593177   -2.00000000000
      8.44098705582   -6.32080279923   -0.00205593177   -2.00000000000
      6.32080279923   -8.44098705582   -0.00205593177   -2.00000000000
     -6.32080279923   -8.44098705582   -0.00205593177   -2.00000000000
     -8.44098705582   -6.32080279923   -0.00205593177   -2.00000000000
    -10.56117131241    0.00000000000   -0.00205593177   -2.00000000000
      0.00000000000   10.56117131241   -0.00205593177   -2.00000000000
     10.56117131241    0.00000000000   -0.00205593177   -2.00000000000
      0.00000000000  -10.56117131241   -0.00205593177   -2.00000000000
     -8.44098705582    0.00000000000   -6.38587007189   -2.00000000000
      0.00000000000    8.44098705582   -6.38587007189   -2.00000000000
      8.44098705582    0.00000000000   -6.38587007189   -2.00000000000
      0.00000000000   -8.44098705582   -6.38587007189   -2.00000000000
    -10.55242967836    2.11144262254   -0.05140086690    2.00000000000
     -2.11144262254   10.55242967836   -0.05140086690    2.00000000000
      2.11144262254   10.55242967836   -0.05140086690    2.00000000000
     10.55242967836    2.11144262254   -0.05140086690    2.00000000000
     10.55242967836   -2.11144262254   -0.05140086690    2.00000000000
      2.11144262254  -10.55242967836   -0.05140086690    2.00000000000
     -2.11144262254  -10.55242967836   -0.05140086690    2.00000000000
    -10.55242967836   -2.11144262254   -0.05140086690    2.00000000000
    -10.54803992736    0.00000000000   -2.14928009216    2.00000000000
      0.00000000000   10.54803992736   -2.14928009216    2.00000000000
     10.54803992736    0.00000000000   -2.14928009216    2.00000000000
      0.00000000000  -10.54803992736   -2.14928009216    2.00000000000
     -8.44098705582    6.33393418427   -2.14928009216    2.00000000000
     -6.33393418427    8.44098705582   -2.14928009216    2.00000000000
      6.33393418427    8.44098705582   -2.14928009216    2.00000000000
      8.44098705582    6.33393418427   -2.14928009216    2.00000000000
      8.44098705582   -6.33393418427   -2.14928009216    2.00000000000
      6.33393418427   -8.44098705582   -2.14928009216    2.00000000000
     -6.33393418427   -8.44098705582   -2.14928009216    2.00000000000
     -8.44098705582   -6.33393418427   -2.14928009216    2.00000000000
     -8.44098705582    2.11024676395   -6.38587007189    2.00000000000
     -2.11024676395    8.44098705582   -6.38587007189    2.00000000000
      2.11024676395    8.44098705582   -6.38587007189    2.00000000000
      8.44098705582    2.11024676395   -6.38587007189    2.00000000000
      8.44098705582   -2.11024676395   -6.38587007189    2.00000000000
      2.11024676395   -8.44098705582   -6.38587007189    2.00000000000
     -2.11024676395   -8.44098705582   -6.38587007189    2.00000000000
     -8.44098705582   -2.11024676395   -6.38587007189    2.00000000000
    -10.55169157031    2.11070451449   -2.15696791928   -2.00000000000
     -2.11070451449   10.55169157031   -2.15696791928   -2.00000000000
      2.11070451449   10.55169157031   -2.15696791928   -2.00000000000
     10.55169157031    2.11070451449   -2.15696791928   -2.00000000000
     10.55169157031   -2.11070451449   -2.15696791928   -2.00000000000
      2.11070451449  -10.55169157031   -2.15696791928   -2.00000000000
     -2.11070451449  -10.55169157031   -2.15696791928   -2.00000000000
    -10.55169157031   -2.11070451449   -2.15696791928   -2.00000000000
     -6.33074029186    6.33074029186   -6.38587007189   -2.00000000000
      6.33074029186    6.33074029186   -6.38587007189   -2.00000000000
      6.33074029186   -6.33074029186   -6.38587007189   -2.00000000000
     -6.33074029186   -6.33074029186   -6.38587007189   -2.00000000000
    -10.55307845305    4.22049352791    0.00000000000   -2.00000000000
     -4.22049352791   10.55307845305    0.00000000000   -2.00000000000
      4.22049352791   10.55307845305    0.00000000000   -2.00000000000
     10.55307845305    4.22049352791    0.00000000000   -2.00000000000
     10.55307845305   -4.22049352791    0.00000000000   -2.00000000000
      4.22049352791  -10.55307845305    0.00000000000   -2.00000000000
     -4.22049352791  -10.55307845305    0.00000000000   -2.00000000000
    -10.55307845305   -4.22049352791    0.00000000000   -2.00000000000
    -10.55123381977    0.00000000000   -4.27562330794   -2.00000000000
     -8.44098705582    6.33074029186   -4.27562330794   -2.00000000000
     -6.33074029186    8.44098705582   -4.27562330794   -2.00000000000
      0.00000000000   10.55123381977   -4.27562330794   -2.00000000000
      6.33074029186    8.44098705582   -4.27562330794   -2.00000000000
      8.44098705582    6.33074029186   -4.27562330794   -2.00000000000
     10.55123381977    0.00000000000   -4.27562330794   -2.00000000000
      8.44098705582   -6.33074029186   -4.27562330794   -2.00000000000
      6.33074029186   -8.44098705582   -4.27562330794   -2.00000000000
      0.00000000000  -10.55123381977   -4.27562330794   -2.00000000000
     -6.33074029186   -8.44098705582   -4.27562330794   -2.00000000000
     -8.44098705582   -6.33074029186   -4.27562330794   -2.00000000000
     -8.44098705582    4.22049352791   -6.38587007189   -2.00000000000
     -4.22049352791    8.44098705582   -6.38587007189   -2.00000000000
      4.22049352791    8.44098705582   -6.38587007189   -2.00000000000
      8.44098705582    4.22049352791   -6.38587007189   -2.00000000000
      8.44098705582   -4.22049352791   -6.38587007189   -2.00000000000
      4.22049352791   -8.44098705582   -6.38587007189   -2.00000000000
     -4.22049352791   -8.44098705582   -6.38587007189   -2.00000000000
     -8.44098705582   -4.22049352791   -6.38587007189   -2.00000000000
    -10.55072118099    4.22049352791   -2.15218714568    2.00000000000
     -4.22049352791   10.55072118099   -2.15218714568    2.00000000000
      4.22049352791   10.55072118099   -2.15218714568    2.00000000000
     10.55072118099    4.22049352791   -2.15218714568    2.00000000000
     10.55072118099   -4.22049352791   -2.15218714568    2.00000000000
      4.22049352791  -10.55072118099   -2.15218714568    2.00000000000
     -4.22049352791  -10.55072118099   -2.15218714568    2.00000000000
    -10.55072118099   -4.22049352791   -2.15218714568    2.00000000000
    -10.55123381977    2.11024676395   -4.27562330794    2.00000000000
     -2.11024676395   10.55123381977   -4.27562330794    2.00000000000
      2.11024676395   10.55123381977   -4.27562330794    2.00000000000
     10.55123381977    2.11024676395   -4.27562330794    2.00000000000
     10.55123381977   -2.11024676395   -4.27562330794    2.00000000000
      2.11024676395  -10.55123381977   -4.27562330794    2.00000000000
     -2.11024676395  -10.55123381977   -4.27562330794    2.00000000000
    -10.55123381977   -2.11024676395   -4.27562330794    2.00000000000
     -8.44098705582    8.44098705582   -0.00772802266    2.00000000000
      8.44098705582    8.44098705582   -0.00772802266    2.00000000000
      8.44098705582   -8.44098705582   -0.00772802266    2.00000000000
     -8.44098705582   -8.44098705582   -0.00772802266    2.00000000000
     -8.44098705582    8.44098705582   -2.14902768389   -2.00000000000
      8.44098705582    8.44098705582   -2.14902768389   -2.00000000000
      8.44098705582   -8.44098705582   -2.14902768389   -2.00000000000
     -8.44098705582   -8.44098705582   -2.14902768389   -2.00000000000
    -10.55123381977    4.22049352791   -4.27562330794   -2.00000000000
     -4.22049352791   10.55123381977   -4.27562330794   -2.00000000000
      4.22049352791   10.55123381977   -4.27562330794   -2.00000000000
     10.55123381977    4.22049352791   -4.27562330794   -2.00000000000
     10.55123381977   -4.22049352791   -4.27562330794   -2.00000000000
      4.22049352791  -10.55123381977   -4.27562330794   -2.00000000000
     -4.22049352791  -10.55123381977   -4.27562330794   -2.00000000000
    -10.55123381977   -4.22049352791   -4.27562330794   -2.00000000000
    -10.55242967836    6.32954443328   -0.05140086690    2.00000000000
     -6.32954443328   10.55242967836   -0.05140086690    2.00000000000
      6.32954443328   10.55242967836   -0.05140086690    2.00000000000
     10.55242967836    6.32954443328   -0.05140086690    2.00000000000
     10.55242967836   -6.32954443328   -0.05140086690    2.00000000000
      6.32954443328  -10.55242967836   -0.05140086690    2.00000000000
     -6.32954443328  -10.55242967836   -0.05140086690    2.00000000000
    -10.55242967836   -6.32954443328   -0.05140086690    2.00000000000
    -10.55123381977    0.00000000000   -6.38587007189    2.00000000000
     -8.44098705582    6.33074029186   -6.38587007189    2.00000000000
     -6.33074029186    8.44098705582   -6.38587007189    2.00000000000
      0.00000000000   10.55123381977   -6.38587007189    2.00000000000
      6.33074029186    8.44098705582   -6.38587007189    2.00000000000
      8.44098705582    6.33074029186   -6.38587007189    2.00000000000
     10.55123381977    0.00000000000   -6.38587007189    2.00000000000
      8.44098705582   -6.33074029186   -6.38587007189    2.00000000000
      6.33074029186   -8.44098705582   -6.38587007189    2.00000000000
      0.00000000000  -10.55123381977   -6.38587007189    2.00000000000
     -6.33074029186   -8.44098705582   -6.38587007189    2.00000000000
     -8.44098705582   -6.33074029186   -6.38587007189    2.00000000000
    -10.55169157031    6.33028254133   -2.15696791928   -2.00000000000
     -6.33028254133   10.55169157031   -2.15696791928   -2.00000000000
      6.33028254133   10.55169157031   -2.15696791928   -2.00000000000
     10.55169157031    6.33028254133   -2.15696791928   -2.00000000000
     10.55169157031   -6.33028254133   -2.15696791928   -2.00000000000
      6.33028254133  -10.55169157031   -2.15696791928   -2.00000000000
     -6.33028254133  -10.55169157031   -2.15696791928   -2.00000000000
    -10.55169157031   -6.33028254133   -2.15696791928   -2.00000000000
    -10.55123381977    2.11024676395   -6.38587007189   -2.00000000000
     -2.11024676395   10.55123381977   -6.38587007189   -2.00000000000
      2.11024676395   10.55123381977   -6.38587007189   -2.00000000000
     10.55123381977    2.11024676395   -6.38587007189   -2.00000000000
     10.55123381977   -2.11024676395   -6.38587007189   -2.00000000000
      2.11024676395  -10.55123381977   -6.38587007189   -2.00000000000
     -2.11024676395  -10.55123381977   -6.38587007189   -2.00000000000
    -10.55123381977   -2.11024676395   -6.38587007189   -2.00000000000
    -12.66148058373    0.00000000000   -0.05042534122    2.00000000000
      0.00000000000   12.66148058373   -0.05042534122    2.00000000000
     12.66148058373    0.00000000000   -0.05042534122    2.00000000000
      0.00000000000  -12.66148058373   -0.05042534122    2.00000000000
     -8.44098705582    8.44098705582   -4.27562330794    2.00000000000
      8.44098705582    8.44098705582   -4.27562330794    2.00000000000
      8.44098705582   -8.44098705582   -4.27562330794    2.00000000000
     -8.44098705582   -8.44098705582   -4.27562330794    2.00000000000
    -12.66148058373    2.11209139723    0.00000000000   -2.00000000000
     -2.11209139723   12.66148058373    0.00000000000   -2.00000000000
      2.11209139723   12.66148058373    0.00000000000   -2.00000000000
     12.66148058373    2.11209139723    0.00000000000   -2.00000000000
     12.66148058373   -2.11209139723    0.00000000000   -2.00000000000
      2.11209139723  -12.66148058373    0.00000000000   -2.00000000000
     -2.11209139723  -12.66148058373    0.00000000000   -2.00000000000
    -12.66148058373   -2.11209139723    0.00000000000   -2.00000000000
    -12.66148058373    0.00000000000   -2.15902521756   -2.00000000000
      0.00000000000   12.66148058373   -2.15902521756   -2.00000000000
     12.66148058373    0.00000000000   -2.15902521756   -2.00000000000
      0.00000000000  -12.66148058373   -2.15902521756   -2.00000000000
    -12.66148058373    2.10973412517   -2.15218714568    2.00000000000
     -2.10973412517   12.66148058373   -2.15218714568    2.00000000000
      2.10973412517   12.66148058373   -2.15218714568    2.00000000000
     12.66148058373    2.10973412517   -2.15218714568    2.00000000000
     12.66148058373   -2.10973412517   -2.15218714568    2.00000000000
      2.10973412517  -12.66148058373   -2.15218714568    2.00000000000
     -2.10973412517  -12.66148058373   -2.15218714568    2.00000000000
    -12.66148058373   -2.10973412517   -2.15218714568    2.00000000000
    -10.55123381977    6.33074029186   -4.27562330794    2.00000000000
     -6.33074029186   10.55123381977   -4.27562330794    2.00000000000
      6.33074029186   10.55123381977   -4.27562330794    2.00000000000
     10.55123381977    6.33074029186   -4.27562330794    2.00000000000
     10.55123381977   -6.33074029186   -4.27562330794    2.00000000000
      6.33074029186  -10.55123381977   -4.27562330794    2.00000000000
     -6.33074029186  -10.55123381977   -4.27562330794    2.00000000000
    -10.55123381977   -6.33074029186   -4.27562330794    2.00000000000
    -10.55123381977    4.22049352791   -6.38587007189    2.00000000000
     -4.22049352791   10.55123381977   -6.38587007189    2.00000000000
      4.22049352791   10.55123381977   -6.38587007189    2.00000000000
     10.55123381977    4.22049352791   -6.38587007189    2.00000000000
     10.55123381977   -4.22049352791   -6.38587007189    2.00000000000
      4.22049352791  -10.55123381977   -6.38587007189    2.00000000000
     -4.22049352791  -10.55123381977   -6.38587007189    2.00000000000
    -10.55123381977   -4.22049352791   -6.38587007189    2.00000000000
    -12.66148058373    4.22049352791   -0.04765173215    2.00000000000
     -4.22049352791   12.66148058373   -0.04765173215    2.00000000000
      4.22049352791   12.66148058373   -0.04765173215    2.00000000000
     12.66148058373    4.22049352791   -0.04765173215    2.00000000000
     12.66148058373   -4.22049352791   -0.04765173215    2.00000000000
      4.22049352791  -12.66148058373   -0.04765173215    2.00000000000
     -4.22049352791  -12.66148058373   -0.04765173215    2.00000000000
    -12.66148058373   -4.22049352791   -0.04765173215    2.00000000000
    -12.66148058373    0.00000000000   -4.27562330794    2.00000000000
      0.00000000000   12.66148058373   -4.27562330794    2.00000000000
     12.66148058373    0.00000000000   -4.27562330794    2.00000000000
      0.00000000000  -12.66148058373   -4.27562330794    2.00000000000
    -12.66148058373    4.22049352791   -2.15801787533   -2.00000000000
     -4.22049352791   12.66148058373   -2.15801787533   -2.00000000000
      4.22049352791   12.66148058373   -2.15801787533   -2.00000000000
     12.66148058373    4.22049352791   -2.15801787533   -2.00000000000
     12.66148058373   -4.22049352791   -2.15801787533   -2.00000000000
      4.22049352791  -12.66148058373   -2.15801787533   -2.00000000000
     -4.22049352791  -12.66148058373   -2.15801787533   -2.00000000000
    -12.66148058373   -4.22049352791   -2.15801787533   -2.00000000000
    -10.56117131241    8.44098705582   -0.00205593177   -2.00000000000
     -8.44098705582   10.56117131241   -0.00205593177   -2.00000000000
      8.44098705582   10.56117131241   -0.00205593177   -2.00000000000
     10.56117131241    8.44098705582   -0.00205593177   -2.00000000000
     10.56117131241   -8.44098705582   -0.00205593177   -2.00000000000
      8.44098705582  -10.56117131241   -0.00205593177   -2.00000000000
     -8.44098705582  -10.56117131241   -0.00205593177   -2.00000000000
    -10.56117131241   -8.44098705582   -0.00205593177   -2.00000000000
    -12.66148058373    2.11024676395   -4.27562330794   -2.00000000000
     -2.11024676395   12.66148058373   -4.27562330794   -2.00000000000
      2.11024676395   12.66148058373   -4.27562330794   -2.00000000000
     12.66148058373    2.11024676395   -4.27562330794   -2.00000000000
     12.66148058373   -2.11024676395   -4.27562330794   -2.00000000000
      2.11024676395  -12.66148058373   -4.27562330794   -2.00000000000
     -2.11024676395  -12.66148058373   -4.27562330794   -2.00000000000
    -12.66148058373   -2.11024676395   -4.27562330794   -2.00000000000
     -8.44098705582    8.44098705582   -6.38587007189   -2.00000000000
      8.44098705582    8.44098705582   -6.38587007189   -2.00000000000
      8.44098705582   -8.44098705582   -6.38587007189   -2.00000000000
     -8.44098705582   -8.44098705582   -6.38587007189   -2.00000000000
    -10.54803992736    8.44098705582   -2.14928009216    2.00000000000
     -8.44098705582   10.54803992736   -2.14928009216    2.00000000000
      8.44098705582   10.54803992736   -2.14928009216    2.00000000000
     10.54803992736    8.44098705582   -2.14928009216    2.00000000000
     10.54803992736   -8.44098705582   -2.14928009216    2.00000000000
      8.44098705582  -10.54803992736   -2.14928009216    2.00000000000
     -8.44098705582  -10.54803992736   -2.14928009216    2.00000000000
    -10.54803992736   -8.44098705582   -2.14928009216    2.00000000000
    -10.55123381977    6.33074029186   -6.38587007189   -2.00000000000
     -6.33074029186   10.55123381977   -6.38587007189   -2.00000000000
      6.33074029186   10.55123381977   -6.38587007189   -2.00000000000
     10.55123381977    6.33074029186   -6.38587007189   -2.00000000000
     10.55123381977   -6.33074029186   -6.38587007189   -2.00000000000
      6.33074029186  -10.55123381977   -6.38587007189   -2.00000000000
     -6.33074029186  -10.55123381977   -6.38587007189   -2.00000000000
    -10.55123381977   -6.33074029186   -6.38587007189   -2.00000000000
    -12.66148058373    4.22049352791   -4.27562330794    2.00000000000
     -4.22049352791   12.66148058373   -4.27562330794    2.00000000000
      4.22049352791   12.66148058373   -4.27562330794    2.00000000000
     12.66148058373    4.22049352791   -4.27562330794    2.00000000000
     12.66148058373   -4.22049352791   -4.27562330794    2.00000000000
      4.22049352791  -12.66148058373   -4.27562330794    2.00000000000
     -4.22049352791  -12.66148058373   -4.27562330794    2.00000000000
    -12.66148058373   -4.22049352791   -4.27562330794    2.00000000000
    -12.66148058373    6.32889565859    0.00000000000   -2.00000000000
     -6.32889565859   12.66148058373    0.00000000000   -2.00000000000
      6.32889565859   12.66148058373    0.00000000000   -2.00000000000
     12.66148058373    6.32889565859    0.00000000000   -2.00000000000
     12.66148058373   -6.32889565859    0.00000000000   -2.00000000000
      6.32889565859  -12.66148058373    0.00000000000   -2.00000000000
     -6.32889565859  -12.66148058373    0.00000000000   -2.00000000000
    -12.66148058373   -6.32889565859    0.00000000000   -2.00000000000
    -10.55123381977    8.44098705582   -4.27562330794   -2.00000000000
     -8.44098705582   10.55123381977   -4.27562330794   -2.00000000000
      8.44098705582   10.55123381977   -4.27562330794   -2.00000000000
     10.55123381977    8.44098705582   -4.27562330794   -2.00000000000
     10.55123381977   -8.44098705582   -4.27562330794   -2.00000000000
      8.44098705582  -10.55123381977   -4.27562330794   -2.00000000000
     -8.44098705582  -10.55123381977   -4.27562330794   -2.00000000000
    -10.55123381977   -8.44098705582   -4.27562330794   -2.00000000000
    -12.66148058373    0.00000000000   -6.38587007189   -2.00000000000
      0.00000000000   12.66148058373   -6.38587007189   -2.00000000000
     12.66148058373    0.00000000000   -6.38587007189   -2.00000000000
      0.00000000000  -12.66148058373   -6.38587007189   -2.00000000000
    -12.66148058373    6.33125293065   -2.15218714568    2.00000000000
     -6.33125293065   12.66148058373   -2.15218714568    2.00000000000
      6.33125293065   12.66148058373   -2.15218714568    2.00000000000
     12.66148058373    6.33125293065   -2.15218714568    2.00000000000
     12.66148058373   -6.33125293065   -2.15218714568    2.00000000000
      6.33125293065  -12.66148058373   -2.15218714568    2.00000000000
     -6.33125293065  -12.66148058373   -2.15218714568    2.00000000000
    -12.66148058373   -6.33125293065   -2.15218714568    2.00000000000
    -12.66148058373    2.11024676395   -6.38587007189    2.00000000000
     -2.11024676395   12.66148058373   -6.38587007189    2.00000000000
      2.11024676395   12.66148058373   -6.38587007189    2.00000000000
     12.66148058373    2.11024676395   -6.38587007189    2.00000000000
     12.66148058373   -2.11024676395   -6.38587007189    2.00000000000
      2.11024676395  -12.66148058373   -6.38587007189    2.00000000000
     -2.11024676395  -12.66148058373   -6.38587007189    2.00000000000
    -12.66148058373   -2.11024676395   -6.38587007189    2.00000000000
    -14.76178985505    0.00000000000   -0.00205593177   -2.00000000000
      0.00000000000   14.76178985505   -0.00205593177   -2.00000000000
     14.76178985505    0.00000000000   -0.00205593177   -2.00000000000
      0.00000000000  -14.76178985505   -0.00205593177   -2.00000000000
    -12.66148058373    6.33074029186   -4.27562330794   -2.00000000000
     -6.33074029186   12.66148058373   -4.27562330794   -2.00000000000
      6.33074029186   12.66148058373   -4.27562330794   -2.00000000000
     12.66148058373    6.33074029186   -4.27562330794   -2.00000000000
     12.66148058373   -6.33074029186   -4.27562330794   -2.00000000000
      6.33074029186  -12.66148058373   -4.27562330794   -2.00000000000
     -6.33074029186  -12.66148058373   -4.27562330794   -2.00000000000
    -12.66148058373   -6.33074029186   -4.27562330794   -2.00000000000
    -12.66148058373    4.22049352791   -6.38587007189   -2.00000000000
     -4.22049352791   12.66148058373   -6.38587007189   -2.00000000000
      4.22049352791   12.66148058373   -6.38587007189   -2.00000000000
     12.66148058373    4.22049352791   -6.38587007189   -2.00000000000
     12.66148058373   -4.22049352791   -6.38587007189   -2.00000000000
      4.22049352791  -12.66148058373   -6.38587007189   -2.00000000000
     -4.22049352791  -12.66148058373   -6.38587007189   -2.00000000000
    -12.66148058373   -4.22049352791   -6.38587007189   -2.00000000000
    -14.77053148910    2.11144262254   -0.05140086690    2.00000000000
     -2.11144262254   14.77053148910   -0.05140086690    2.00000000000
      2.11144262254   14.77053148910   -0.05140086690    2.00000000000
     14.77053148910    2.11144262254   -0.05140086690    2.00000000000
     14.77053148910   -2.11144262254   -0.05140086690    2.00000000000
      2.11144262254  -14.77053148910   -0.05140086690    2.00000000000
     -2.11144262254  -14.77053148910   -0.05140086690    2.00000000000
    -14.77053148910   -2.11144262254   -0.05140086690    2.00000000000
    -10.55242967836   10.55242967836   -0.05140086690    2.00000000000
     10.55242967836   10.55242967836   -0.05140086690    2.00000000000
     10.55242967836  -10.55242967836   -0.05140086690    2.00000000000
    -10.55242967836  -10.55242967836   -0.05140086690    2.00000000000
    -14.77492124009    0.00000000000   -2.14928009216    2.00000000000
      0.00000000000   14.77492124009   -2.14928009216    2.00000000000
     14.77492124009    0.00000000000   -2.14928009216    2.00000000000
      0.00000000000  -14.77492124009   -2.14928009216    2.00000000000
    -10.55123381977    8.44098705582   -6.38587007189    2.00000000000
     -8.44098705582   10.55123381977   -6.38587007189    2.00000000000
      8.44098705582   10.55123381977   -6.38587007189    2.00000000000
     10.55123381977    8.44098705582   -6.38587007189    2.00000000000
     10.55123381977   -8.44098705582   -6.38587007189    2.00000000000
      8.44098705582  -10.55123381977   -6.38587007189    2.00000000000
     -8.44098705582  -10.55123381977   -6.38587007189    2.00000000000
    -10.55123381977   -8.44098705582   -6.38587007189    2.00000000000
    -14.77126959714    2.11070451449   -2.15696791928   -2.00000000000
     -2.11070451449   14.77126959714   -2.15696791928   -2.00000000000
      2.11070451449   14.77126959714   -2.15696791928   -2.00000000000
     14.77126959714    2.11070451449   -2.15696791928   -2.00000000000
     14.77126959714   -2.11070451449   -2.15696791928   -2.00000000000
      2.11070451449  -14.77126959714   -2.15696791928   -2.00000000000
     -2.11070451449  -14.77126959714   -2.15696791928   -2.00000000000
    -14.77126959714   -2.11070451449   -2.15696791928   -2.00000000000
    -10.55169157031   10.55169157031   -2.15696791928   -2.00000000000
     10.55169157031   10.55169157031   -2.15696791928   -2.00000000000
     10.55169157031  -10.55169157031   -2.15696791928   -2.00000000000
    -10.55169157031  -10.55169157031   -2.15696791928   -2.00000000000
    -12.66148058373    8.44098705582   -0.05042534122    2.00000000000
     -8.44098705582   12.66148058373   -0.05042534122    2.00000000000
      8.44098705582   12.66148058373   -0.05042534122    2.00000000000
     12.66148058373    8.44098705582   -0.05042534122    2.00000000000
     12.66148058373   -8.44098705582   -0.05042534122    2.00000000000
      8.44098705582  -12.66148058373   -0.05042534122    2.00000000000
     -8.44098705582  -12.66148058373   -0.05042534122    2.00000000000
    -12.66148058373   -8.44098705582   -0.05042534122    2.00000000000
    -14.76988271440    4.22049352791    0.00000000000   -2.00000000000
     -4.22049352791   14.76988271440    0.00000000000   -2.00000000000
      4.22049352791   14.76988271440    0.00000000000   -2.00000000000
     14.76988271440    4.22049352791    0.00000000000   -2.00000000000
     14.76988271440   -4.22049352791    0.00000000000   -2.00000000000
      4.22049352791  -14.76988271440    0.00000000000   -2.00000000000
     -4.22049352791  -14.76988271440    0.00000000000   -2.00000000000
    -14.76988271440   -4.22049352791    0.00000000000   -2.00000000000
    -12.66148058373    8.44098705582   -2.15902521756   -2.00000000000
     -8.44098705582   12.66148058373   -2.15902521756   -2.00000000000
      8.44098705582   12.66148058373   -2.15902521756   -2.00000000000
     12.66148058373    8.44098705582   -2.15902521756   -2.00000000000
     12.66148058373   -8.44098705582   -2.15902521756   -2.00000000000
      8.44098705582  -12.66148058373   -2.15902521756   -2.00000000000
     -8.44098705582  -12.66148058373   -2.15902521756   -2.00000000000
    -12.66148058373   -8.44098705582   -2.15902521756   -2.00000000000
    -14.77172734768    0.00000000000   -4.27562330794   -2.00000000000
      0.00000000000   14.77172734768   -4.27562330794   -2.00000000000
     14.77172734768    0.00000000000   -4.27562330794   -2.00000000000
      0.00000000000  -14.77172734768   -4.27562330794   -2.00000000000
    -14.77223998647    4.22049352791   -2.15218714568    2.00000000000
     -4.22049352791   14.77223998647   -2.15218714568    2.00000000000
      4.22049352791   14.77223998647   -2.15218714568    2.00000000000
     14.77223998647    4.22049352791   -2.15218714568    2.00000000000
     14.77223998647   -4.22049352791   -2.15218714568    2.00000000000
      4.22049352791  -14.77223998647   -2.15218714568    2.00000000000
     -4.22049352791  -14.77223998647   -2.15218714568    2.00000000000
    -14.77223998647   -4.22049352791   -2.15218714568    2.00000000000
    -14.77172734768    2.11024676395   -4.27562330794    2.00000000000
    -10.55123381977   10.55123381977   -4.27562330794    2.00000000000
     -2.11024676395   14.77172734768   -4.27562330794    2.00000000000
      2.11024676395   14.77172734768   -4.27562330794    2.00000000000
     10.55123381977   10.55123381977   -4.27562330794    2.00000000000
     14.77172734768    2.11024676395   -4.27562330794    2.00000000000
     14.77172734768   -2.11024676395   -4.27562330794    2.00000000000
     10.55123381977  -10.55123381977   -4.27562330794    2.00000000000
      2.11024676395  -14.77172734768   -4.27562330794    2.00000000000
     -2.11024676395  -14.77172734768   -4.27562330794    2.00000000000
    -10.55123381977  -10.55123381977   -4.27562330794    2.00000000000
    -14.77172734768   -2.11024676395   -4.27562330794    2.00000000000
    -12.66148058373    6.33074029186   -6.38587007189    2.00000000000
     -6.33074029186   12.66148058373   -6.38587007189    2.00000000000
      6.33074029186   12.66148058373   -6.38587007189    2.00000000000
     12.66148058373    6.33074029186   -6.38587007189    2.00000000000
     12.66148058373   -6.33074029186   -6.38587007189    2.00000000000
      6.33074029186  -12.66148058373   -6.38587007189    2.00000000000
     -6.33074029186  -12.66148058373   -6.38587007189    2.00000000000
    -12.66148058373   -6.33074029186   -6.38587007189    2.00000000000
    -12.66148058373    8.44098705582   -4.27562330794    2.00000000000
     -8.44098705582   12.66148058373   -4.27562330794    2.00000000000
      8.44098705582   12.66148058373   -4.27562330794    2.00000000000
     12.66148058373    8.44098705582   -4.27562330794    2.00000000000
     12.66148058373   -8.44098705582   -4.27562330794    2.00000000000
      8.44098705582  -12.66148058373   -4.27562330794    2.00000000000
     -8.44098705582  -12.66148058373   -4.27562330794    2.00000000000
    -12.66148058373   -8.44098705582   -4.27562330794    2.00000000000
    -14.77172734768    4.22049352791   -4.27562330794   -2.00000000000
     -4.22049352791   14.77172734768   -4.27562330794   -2.00000000000
      4.22049352791   14.77172734768   -4.27562330794   -2.00000000000
     14.77172734768    4.22049352791   -4.27562330794   -2.00000000000
     14.77172734768   -4.22049352791   -4.27562330794   -2.00000000000
      4.22049352791  -14.77172734768   -4.27562330794   -2.00000000000
     -4.22049352791  -14.77172734768   -4.27562330794   -2.00000000000
    -14.77172734768   -4.22049352791   -4.27562330794   -2.00000000000
    -14.77053148910    6.32954443328   -0.05140086690    2.00000000000
     -6.32954443328   14.77053148910   -0.05140086690    2.00000000000
      6.32954443328   14.77053148910   -0.05140086690    2.00000000000
     14.77053148910    6.32954443328   -0.05140086690    2.00000000000
     14.77053148910   -6.32954443328   -0.05140086690    2.00000000000
      6.32954443328  -14.77053148910   -0.05140086690    2.00000000000
     -6.32954443328  -14.77053148910   -0.05140086690    2.00000000000
    -14.77053148910   -6.32954443328   -0.05140086690    2.00000000000
    -14.77172734768    0.00000000000   -6.38587007189    2.00000000000
      0.00000000000   14.77172734768   -6.38587007189    2.00000000000
     14.77172734768    0.00000000000   -6.38587007189    2.00000000000
      0.00000000000  -14.77172734768   -6.38587007189    2.00000000000
    -14.77126959714    6.33028254133   -2.15696791928   -2.00000000000
     -6.33028254133   14.77126959714   -2.15696791928   -2.00000000000
      6.33028254133   14.77126959714   -2.15696791928   -2.00000000000
     14.77126959714    6.33028254133   -2.15696791928   -2.00000000000
     14.77126959714   -6.33028254133   -2.15696791928   -2.00000000000
      6.33028254133  -14.77126959714   -2.15696791928   -2.00000000000
     -6.33028254133  -14.77126959714   -2.15696791928   -2.00000000000
    -14.77126959714   -6.33028254133   -2.15696791928   -2.00000000000
    -14.77172734768    2.11024676395   -6.38587007189   -2.00000000000
    -10.55123381977   10.55123381977   -6.38587007189   -2.00000000000
     -2.11024676395   14.77172734768   -6.38587007189   -2.00000000000
      2.11024676395   14.77172734768   -6.38587007189   -2.00000000000
     10.55123381977   10.55123381977   -6.38587007189   -2.00000000000
     14.77172734768    2.11024676395   -6.38587007189   -2.00000000000
     14.77172734768   -2.11024676395   -6.38587007189   -2.00000000000
     10.55123381977  -10.55123381977   -6.38587007189   -2.00000000000
      2.11024676395  -14.77172734768   -6.38587007189   -2.00000000000
     -2.11024676395  -14.77172734768   -6.38587007189   -2.00000000000
    -10.55123381977  -10.55123381977   -6.38587007189   -2.00000000000
    -14.77172734768   -2.11024676395   -6.38587007189   -2.00000000000
    -12.66148058373   10.55307845305    0.00000000000   -2.00000000000
    -10.55307845305   12.66148058373    0.00000000000   -2.00000000000
     10.55307845305   12.66148058373    0.00000000000   -2.00000000000
     12.66148058373   10.55307845305    0.00000000000   -2.00000000000
     12.66148058373  -10.55307845305    0.00000000000   -2.00000000000
     10.55307845305  -12.66148058373    0.00000000000   -2.00000000000
    -10.55307845305  -12.66148058373    0.00000000000   -2.00000000000
    -12.66148058373  -10.55307845305    0.00000000000   -2.00000000000
    -12.66148058373    8.44098705582   -6.38587007189   -2.00000000000
     -8.44098705582   12.66148058373   -6.38587007189   -2.00000000000
      8.44098705582   12.66148058373   -6.38587007189   -2.00000000000
     12.66148058373    8.44098705582   -6.38587007189   -2.00000000000
     12.66148058373   -8.44098705582   -6.38587007189   -2.00000000000
      8.44098705582  -12.66148058373   -6.38587007189   -2.00000000000
     -8.44098705582  -12.66148058373   -6.38587007189   -2.00000000000
    -12.66148058373   -8.44098705582   -6.38587007189   -2.00000000000
    -12.66148058373   10.55072118099   -2.15218714568    2.00000000000
    -10.55072118099   12.66148058373   -2.15218714568    2.00000000000
     10.55072118099   12.66148058373   -2.15218714568    2.00000000000
     12.66148058373   10.55072118099   -2.15218714568    2.00000000000
     12.66148058373  -10.55072118099   -2.15218714568    2.00000000000
     10.55072118099  -12.66148058373   -2.15218714568    2.00000000000
    -10.55072118099  -12.66148058373   -2.15218714568    2.00000000000
    -12.66148058373  -10.55072118099   -2.15218714568    2.00000000000
    -14.77172734768    6.33074029186   -4.27562330794    2.00000000000
     -6.33074029186   14.77172734768   -4.27562330794    2.00000000000
      6.33074029186   14.77172734768   -4.27562330794    2.00000000000
     14.77172734768    6.33074029186   -4.27562330794    2.00000000000
     14.77172734768   -6.33074029186   -4.27562330794    2.00000000000
      6.33074029186  -14.77172734768   -4.27562330794    2.00000000000
     -6.33074029186  -14.77172734768   -4.27562330794    2.00000000000
    -14.77172734768   -6.33074029186   -4.27562330794    2.00000000000
    -14.77172734768    4.22049352791   -6.38587007189    2.00000000000
     -4.22049352791   14.77172734768   -6.38587007189    2.00000000000
      4.22049352791   14.77172734768   -6.38587007189    2.00000000000
     14.77172734768    4.22049352791   -6.38587007189    2.00000000000
     14.77172734768   -4.22049352791   -6.38587007189    2.00000000000
      4.22049352791  -14.77172734768   -6.38587007189    2.00000000000
     -4.22049352791  -14.77172734768   -6.38587007189    2.00000000000
    -14.77172734768   -4.22049352791   -6.38587007189    2.00000000000
    -16.88197411163    0.00000000000   -0.00772802266    2.00000000000
      0.00000000000   16.88197411163   -0.00772802266    2.00000000000
     16.88197411163    0.00000000000   -0.00772802266    2.00000000000
      0.00000000000  -16.88197411163   -0.00772802266    2.00000000000
    -14.76178985505    8.44098705582   -0.00205593177   -2.00000000000
     -8.44098705582   14.76178985505   -0.00205593177   -2.00000000000
      8.44098705582   14.76178985505   -0.00205593177   -2.00000000000
     14.76178985505    8.44098705582   -0.00205593177   -2.00000000000
     14.76178985505   -8.44098705582   -0.00205593177   -2.00000000000
      8.44098705582  -14.76178985505   -0.00205593177   -2.00000000000
     -8.44098705582  -14.76178985505   -0.00205593177   -2.00000000000
    -14.76178985505   -8.44098705582   -0.00205593177   -2.00000000000
    -16.88197411163    2.12018425659   -0.00205593177   -2.00000000000
     -2.12018425659   16.88197411163   -0.00205593177   -2.00000000000
      2.12018425659   16.88197411163   -0.00205593177   -2.00000000000
     16.88197411163    2.12018425659   -0.00205593177   -2.00000000000
     16.88197411163   -2.12018425659   -0.00205593177   -2.00000000000
      2.12018425659  -16.88197411163   -0.00205593177   -2.00000000000
     -2.12018425659  -16.88197411163   -0.00205593177   -2.00000000000
    -16.88197411163   -2.12018425659   -0.00205593177   -2.00000000000
    -16.88197411163    0.00000000000   -2.14902768389   -2.00000000000
      0.00000000000   16.88197411163   -2.14902768389   -2.00000000000
     16.88197411163    0.00000000000   -2.14902768389   -2.00000000000
      0.00000000000  -16.88197411163   -2.14902768389   -2.00000000000
    -12.66148058373   10.55123381977   -4.27562330794   -2.00000000000
    -10.55123381977   12.66148058373   -4.27562330794   -2.00000000000
     10.55123381977   12.66148058373   -4.27562330794   -2.00000000000
     12.66148058373   10.55123381977   -4.27562330794   -2.00000000000
     12.66148058373  -10.55123381977   -4.27562330794   -2.00000000000
     10.55123381977  -12.66148058373   -4.27562330794   -2.00000000000
    -10.55123381977  -12.66148058373   -4.27562330794   -2.00000000000
    -12.66148058373  -10.55123381977   -4.27562330794   -2.00000000000
    -16.88197411163    2.10705287155   -2.14928009216    2.00000000000
     -2.10705287155   16.88197411163   -2.14928009216    2.00000000000
      2.10705287155   16.88197411163   -2.14928009216    2.00000000000
     16.88197411163    2.10705287155   -2.14928009216    2.00000000000
     16.88197411163   -2.10705287155   -2.14928009216    2.00000000000
      2.10705287155  -16.88197411163   -2.14928009216    2.00000000000
     -2.10705287155  -16.88197411163   -2.14928009216    2.00000000000
    -16.88197411163   -2.10705287155   -2.14928009216    2.00000000000
    -14.77492124009    8.44098705582   -2.14928009216    2.00000000000
     -8.44098705582   14.77492124009   -2.14928009216    2.00000000000
      8.44098705582   14.77492124009   -2.14928009216    2.00000000000
     14.77492124009    8.44098705582   -2.14928009216    2.00000000000
     14.77492124009   -8.44098705582   -2.14928009216    2.00000000000
      8.44098705582  -14.77492124009   -2.14928009216    2.00000000000
     -8.44098705582  -14.77492124009   -2.14928009216    2.00000000000
    -14.77492124009   -8.44098705582   -2.14928009216    2.00000000000
    -14.77172734768    6.33074029186   -6.38587007189   -2.00000000000
     -6.33074029186   14.77172734768   -6.38587007189   -2.00000000000
      6.33074029186   14.77172734768   -6.38587007189   -2.00000000000
     14.77172734768    6.33074029186   -6.38587007189   -2.00000000000
     14.77172734768   -6.33074029186   -6.38587007189   -2.00000000000
      6.33074029186  -14.77172734768   -6.38587007189   -2.00000000000
     -6.33074029186  -14.77172734768   -6.38587007189   -2.00000000000
    -14.77172734768   -6.33074029186   -6.38587007189   -2.00000000000
    -16.88197411163    4.22049352791   -0.05042534122    2.00000000000
     -4.22049352791   16.88197411163   -0.05042534122    2.00000000000
      4.22049352791   16.88197411163   -0.05042534122    2.00000000000
     16.88197411163    4.22049352791   -0.05042534122    2.00000000000
     16.88197411163   -4.22049352791   -0.05042534122    2.00000000000
      4.22049352791  -16.88197411163   -0.05042534122    2.00000000000
     -4.22049352791  -16.88197411163   -0.05042534122    2.00000000000
    -16.88197411163   -4.22049352791   -0.05042534122    2.00000000000
    -16.88197411163    0.00000000000   -4.27562330794    2.00000000000
      0.00000000000   16.88197411163   -4.27562330794    2.00000000000
     16.88197411163    0.00000000000   -4.27562330794    2.00000000000
      0.00000000000  -16.88197411163   -4.27562330794    2.00000000000
    -16.88197411163    4.22049352791   -2.15902521756   -2.00000000000
     -4.22049352791   16.88197411163   -2.15902521756   -2.00000000000
      4.22049352791   16.88197411163   -2.15902521756   -2.00000000000
     16.88197411163    4.22049352791   -2.15902521756   -2.00000000000
     16.88197411163   -4.22049352791   -2.15902521756   -2.00000000000
      4.22049352791  -16.88197411163   -2.15902521756   -2.00000000000
     -4.22049352791  -16.88197411163   -2.15902521756   -2.00000000000
    -16.88197411163   -4.22049352791   -2.15902521756   -2.00000000000
    -16.88197411163    2.11024676395   -4.27562330794   -2.00000000000
    -14.77172734768    8.44098705582   -4.27562330794   -2.00000000000
     -8.44098705582   14.77172734768   -4.27562330794   -2.00000000000
     -2.11024676395   16.88197411163   -4.27562330794   -2.00000000000
      2.11024676395   16.88197411163   -4.27562330794   -2.00000000000
      8.44098705582   14.77172734768   -4.27562330794   -2.00000000000
     14.77172734768    8.44098705582   -4.27562330794   -2.00000000000
     16.88197411163    2.11024676395   -4.27562330794   -2.00000000000
     16.88197411163   -2.11024676395   -4.27562330794   -2.00000000000
     14.77172734768   -8.44098705582   -4.27562330794   -2.00000000000
      8.44098705582  -14.77172734768   -4.27562330794   -2.00000000000
      2.11024676395  -16.88197411163   -4.27562330794   -2.00000000000
     -2.11024676395  -16.88197411163   -4.27562330794   -2.00000000000
     -8.44098705582  -14.77172734768   -4.27562330794   -2.00000000000
    -14.77172734768   -8.44098705582   -4.27562330794   -2.00000000000
    -16.88197411163   -2.11024676395   -4.27562330794   -2.00000000000
    -12.66148058373   10.55123381977   -6.38587007189    2.00000000000
    -10.55123381977   12.66148058373   -6.38587007189    2.00000000000
     10.55123381977   12.66148058373   -6.38587007189    2.00000000000
     12.66148058373   10.55123381977   -6.38587007189    2.00000000000
     12.66148058373  -10.55123381977   -6.38587007189    2.00000000000
     10.55123381977  -12.66148058373   -6.38587007189    2.00000000000
    -10.55123381977  -12.66148058373   -6.38587007189    2.00000000000
    -12.66148058373  -10.55123381977   -6.38587007189    2.00000000000
    -12.66148058373   12.66148058373   -0.04765173215    2.00000000000
     12.66148058373   12.66148058373   -0.04765173215    2.00000000000
     12.66148058373  -12.66148058373   -0.04765173215    2.00000000000
    -12.66148058373  -12.66148058373   -0.04765173215    2.00000000000
    -16.88197411163    4.22049352791   -4.27562330794    2.00000000000
     -4.22049352791   16.88197411163   -4.27562330794    2.00000000000
      4.22049352791   16.88197411163   -4.27562330794    2.00000000000
     16.88197411163    4.22049352791   -4.27562330794    2.00000000000
     16.88197411163   -4.22049352791   -4.27562330794    2.00000000000
      4.22049352791  -16.88197411163   -4.27562330794    2.00000000000
     -4.22049352791  -16.88197411163   -4.27562330794    2.00000000000
    -16.88197411163   -4.22049352791   -4.27562330794    2.00000000000
    -16.88197411163    6.32080279923   -0.00205593177   -2.00000000000
     -6.32080279923   16.88197411163   -0.00205593177   -2.00000000000
      6.32080279923   16.88197411163   -0.00205593177   -2.00000000000
     16.88197411163    6.32080279923   -0.00205593177   -2.00000000000
     16.88197411163   -6.32080279923   -0.00205593177   -2.00000000000
      6.32080279923  -16.88197411163   -0.00205593177   -2.00000000000
     -6.32080279923  -16.88197411163   -0.00205593177   -2.00000000000
    -16.88197411163   -6.32080279923   -0.00205593177   -2.00000000000
    -12.66148058373   12.66148058373   -2.15801787533   -2.00000000000
     12.66148058373   12.66148058373   -2.15801787533   -2.00000000000
     12.66148058373  -12.66148058373   -2.15801787533   -2.00000000000
    -12.66148058373  -12.66148058373   -2.15801787533   -2.00000000000
    -16.88197411163    0.00000000000   -6.38587007189   -2.00000000000
      0.00000000000   16.88197411163   -6.38587007189   -2.00000000000
     16.88197411163    0.00000000000   -6.38587007189   -2.00000000000
      0.00000000000  -16.88197411163   -6.38587007189   -2.00000000000
    -14.77053148910   10.55242967836   -0.05140086690    2.00000000000
    -10.55242967836   14.77053148910   -0.05140086690    2.00000000000
     10.55242967836   14.77053148910   -0.05140086690    2.00000000000
     14.77053148910   10.55242967836   -0.05140086690    2.00000000000
     14.77053148910  -10.55242967836   -0.05140086690    2.00000000000
     10.55242967836  -14.77053148910   -0.05140086690    2.00000000000
    -10.55242967836  -14.77053148910   -0.05140086690    2.00000000000
    -14.77053148910  -10.55242967836   -0.05140086690    2.00000000000
    -16.88197411163    6.33393418427   -2.14928009216    2.00000000000
     -6.33393418427   16.88197411163   -2.14928009216    2.00000000000
      6.33393418427   16.88197411163   -2.14928009216    2.00000000000
     16.88197411163    6.33393418427   -2.14928009216    2.00000000000
     16.88197411163   -6.33393418427   -2.14928009216    2.00000000000
      6.33393418427  -16.88197411163   -2.14928009216    2.00000000000
     -6.33393418427  -16.88197411163   -2.14928009216    2.00000000000
    -16.88197411163   -6.33393418427   -2.14928009216    2.00000000000
    -16.88197411163    2.11024676395   -6.38587007189    2.00000000000
    -14.77172734768    8.44098705582   -6.38587007189    2.00000000000
     -8.44098705582   14.77172734768   -6.38587007189    2.00000000000
     -2.11024676395   16.88197411163   -6.38587007189    2.00000000000
      2.11024676395   16.88197411163   -6.38587007189    2.00000000000
      8.44098705582   14.77172734768   -6.38587007189    2.00000000000
     14.77172734768    8.44098705582   -6.38587007189    2.00000000000
     16.88197411163    2.11024676395   -6.38587007189    2.00000000000
     16.88197411163   -2.11024676395   -6.38587007189    2.00000000000
     14.77172734768   -8.44098705582   -6.38587007189    2.00000000000
      8.44098705582  -14.77172734768   -6.38587007189    2.00000000000
      2.11024676395  -16.88197411163   -6.38587007189    2.00000000000
     -2.11024676395  -16.88197411163   -6.38587007189    2.00000000000
     -8.44098705582  -14.77172734768   -6.38587007189    2.00000000000
    -14.77172734768   -8.44098705582   -6.38587007189    2.00000000000
    -16.88197411163   -2.11024676395   -6.38587007189    2.00000000000
    -14.77126959714   10.55169157031   -2.15696791928   -2.00000000000
    -10.55169157031   14.77126959714   -2.15696791928   -2.00000000000
     10.55169157031   14.77126959714   -2.15696791928   -2.00000000000
     14.77126959714   10.55169157031   -2.15696791928   -2.00000000000
     14.77126959714  -10.55169157031   -2.15696791928   -2.00000000000
     10.55169157031  -14.77126959714   -2.15696791928   -2.00000000000
    -10.55169157031  -14.77126959714   -2.15696791928   -2.00000000000
    -14.77126959714  -10.55169157031   -2.15696791928   -2.00000000000
    -12.66148058373   12.66148058373   -4.27562330794    2.00000000000
     12.66148058373   12.66148058373   -4.27562330794    2.00000000000
     12.66148058373  -12.66148058373   -4.27562330794    2.00000000000
    -12.66148058373  -12.66148058373   -4.27562330794    2.00000000000
    -16.88197411163    6.33074029186   -4.27562330794   -2.00000000000
     -6.33074029186   16.88197411163   -4.27562330794   -2.00000000000
      6.33074029186   16.88197411163   -4.27562330794   -2.00000000000
     16.88197411163    6.33074029186   -4.27562330794   -2.00000000000
     16.88197411163   -6.33074029186   -4.27562330794   -2.00000000000
      6.33074029186  -16.88197411163   -4.27562330794   -2.00000000000
     -6.33074029186  -16.88197411163   -4.27562330794   -2.00000000000
    -16.88197411163   -6.33074029186   -4.27562330794   -2.00000000000
    -16.88197411163    4.22049352791   -6.38587007189   -2.00000000000
     -4.22049352791   16.88197411163   -6.38587007189   -2.00000000000
      4.22049352791   16.88197411163   -6.38587007189   -2.00000000000
     16.88197411163    4.22049352791   -6.38587007189   -2.00000000000
     16.88197411163   -4.22049352791   -6.38587007189   -2.00000000000
      4.22049352791  -16.88197411163   -6.38587007189   -2.00000000000
     -4.22049352791  -16.88197411163   -6.38587007189   -2.00000000000
    -16.88197411163   -4.22049352791   -6.38587007189   -2.00000000000
    -14.77172734768   10.55123381977   -4.27562330794    2.00000000000
    -10.55123381977   14.77172734768   -4.27562330794    2.00000000000
     10.55123381977   14.77172734768   -4.27562330794    2.00000000000
     14.77172734768   10.55123381977   -4.27562330794    2.00000000000
     14.77172734768  -10.55123381977   -4.27562330794    2.00000000000
     10.55123381977  -14.77172734768   -4.27562330794    2.00000000000
    -10.55123381977  -14.77172734768   -4.27562330794    2.00000000000
    -14.77172734768  -10.55123381977   -4.27562330794    2.00000000000
    -16.88197411163    8.44098705582   -0.00772802266    2.00000000000
     -8.44098705582   16.88197411163   -0.00772802266    2.00000000000
      8.44098705582   16.88197411163   -0.00772802266    2.00000000000
     16.88197411163    8.44098705582   -0.00772802266    2.00000000000
     16.88197411163   -8.44098705582   -0.00772802266    2.00000000000
      8.44098705582  -16.88197411163   -0.00772802266    2.00000000000
     -8.44098705582  -16.88197411163   -0.00772802266    2.00000000000
    -16.88197411163   -8.44098705582   -0.00772802266    2.00000000000
    -16.88197411163    8.44098705582   -2.14902768389   -2.00000000000
     -8.44098705582   16.88197411163   -2.14902768389   -2.00000000000
      8.44098705582   16.88197411163   -2.14902768389   -2.00000000000
     16.88197411163    8.44098705582   -2.14902768389   -2.00000000000
     16.88197411163   -8.44098705582   -2.14902768389   -2.00000000000
      8.44098705582  -16.88197411163   -2.14902768389   -2.00000000000
     -8.44098705582  -16.88197411163   -2.14902768389   -2.00000000000
    -16.88197411163   -8.44098705582   -2.14902768389   -2.00000000000
    -19.00215836822    0.00000000000   -0.00205593177   -2.00000000000
      0.00000000000   19.00215836822   -0.00205593177   -2.00000000000
     19.00215836822    0.00000000000   -0.00205593177   -2.00000000000
      0.00000000000  -19.00215836822   -0.00205593177   -2.00000000000
    -12.66148058373   12.66148058373   -6.38587007189   -2.00000000000
     12.66148058373   12.66148058373   -6.38587007189   -2.00000000000
     12.66148058373  -12.66148058373   -6.38587007189   -2.00000000000
    -12.66148058373  -12.66148058373   -6.38587007189   -2.00000000000
    -18.98902698318    0.00000000000   -2.14928009216    2.00000000000
      0.00000000000   18.98902698318   -2.14928009216    2.00000000000
     18.98902698318    0.00000000000   -2.14928009216    2.00000000000
      0.00000000000  -18.98902698318   -2.14928009216    2.00000000000
    -18.99341673417    2.11144262254   -0.05140086690    2.00000000000
     -2.11144262254   18.99341673417   -0.05140086690    2.00000000000
      2.11144262254   18.99341673417   -0.05140086690    2.00000000000
     18.99341673417    2.11144262254   -0.05140086690    2.00000000000
     18.99341673417   -2.11144262254   -0.05140086690    2.00000000000
      2.11144262254  -18.99341673417   -0.05140086690    2.00000000000
     -2.11144262254  -18.99341673417   -0.05140086690    2.00000000000
    -18.99341673417   -2.11144262254   -0.05140086690    2.00000000000
    -16.88197411163    6.33074029186   -6.38587007189    2.00000000000
     -6.33074029186   16.88197411163   -6.38587007189    2.00000000000
      6.33074029186   16.88197411163   -6.38587007189    2.00000000000
     16.88197411163    6.33074029186   -6.38587007189    2.00000000000
     16.88197411163   -6.33074029186   -6.38587007189    2.00000000000
[...]
  451   41O1f-1       41O1f0        41O1f+1       41O1f+2       41O1f+3       41O2f-3       41O2f-2       41O2f-1       41O2f0        41O2f+1    
  452   41O2f+2       41O2f+3       41O3f-3       41O3f-2       41O3f-1       41O3f0        41O3f+1       41O3f+2       41O3f+3       41O4f-3    
  453   41O4f-2       41O4f-1       41O4f0        41O4f+1       41O4f+2       41O4f+3       41O1g-4       41O1g-3       41O1g-2       41O1g-1    
  454   41O1g0        41O1g+1       41O1g+2       41O1g+3       41O1g+4       41O2g-4       41O2g-3       41O2g-2       41O2g-1       41O2g0     
  455   41O2g+1       41O2g+2       41O2g+3       41O2g+4       42O1s         42O2s         42O3s         42O4s         42O5s         42O6s      
  456   42O7s         42O8s         42O9s         42O1pz        42O1py        42O1px        42O2pz        42O2py        42O2px        42O3pz     
  457   42O3py        42O3px        42O4pz        42O4py        42O4px        42O5pz        42O5py        42O5px        42O6pz        42O6py     
  458   42O6px        42O7pz        42O7py        42O7px        42O1d-2       42O1d-1       42O1d0        42O1d+1       42O1d+2       42O2d-2    
  459   42O2d-1       42O2d0        42O2d+1       42O2d+2       42O3d-2       42O3d-1       42O3d0        42O3d+1       42O3d+2       42O4d-2    
  460   42O4d-1       42O4d0        42O4d+1       42O4d+2       42O5d-2       42O5d-1       42O5d0        42O5d+1       42O5d+2       42O6d-2    
  461   42O6d-1       42O6d0        42O6d+1       42O6d+2       42O1f-3       42O1f-2       42O1f-1       42O1f0        42O1f+1       42O1f+2    
  462   42O1f+3       42O2f-3       42O2f-2       42O2f-1       42O2f0        42O2f+1       42O2f+2       42O2f+3       42O3f-3       42O3f-2    
  463   42O3f-1       42O3f0        42O3f+1       42O3f+2       42O3f+3       42O4f-3       42O4f-2       42O4f-1       42O4f0        42O4f+1    
  464   42O4f+2       42O4f+3       42O1g-4       42O1g-3       42O1g-2       42O1g-1       42O1g0        42O1g+1       42O1g+2       42O1g+3    
  465   42O1g+4       42O2g-4       42O2g-3       42O2g-2       42O2g-1       42O2g0        42O2g+1       42O2g+2       42O2g+3       42O2g+4    
 
 Maximum number of basis functions per shell:   35
 Total number of basis functions:   4660
 
 
 Old basis set for SCF restart
 
   1  Mg def2-svp [ 10s 7p 1d | 4s 3p 1d ]
   2  O  def2-svp [ 7s 4p 1d | 3s 2p 1d ]
   3  O  def2-svp [ 7s 4p 1d | 3s 2p 1d ]
   4  O  def2-svp [ 7s 4p 1d | 3s 2p 1d ]
   5  O  def2-svp [ 7s 4p 1d | 3s 2p 1d ]
   6  O  def2-svp [ 7s 4p 1d | 3s 2p 1d ]
   7  Mg def2-svp [ 10s 7p 1d | 4s 3p 1d ]
   8  Mg def2-svp [ 10s 7p 1d | 4s 3p 1d ]
   9  Mg def2-svp [ 10s 7p 1d | 4s 3p 1d ]
  10  Mg def2-svp [ 10s 7p 1d | 4s 3p 1d ]
  11  Mg def2-svp [ 10s 7p 1d | 4s 3p 1d ]
  12  Mg def2-svp [ 10s 7p 1d | 4s 3p 1d ]
  13  Mg def2-svp [ 10s 7p 1d | 4s 3p 1d ]
  14  Mg def2-svp [ 10s 7p 1d | 4s 3p 1d ]
  15  O  def2-svp [ 7s 4p 1d | 3s 2p 1d ]
  16  O  def2-svp [ 7s 4p 1d | 3s 2p 1d ]
  17  O  def2-svp [ 7s 4p 1d | 3s 2p 1d ]
  18  O  def2-svp [ 7s 4p 1d | 3s 2p 1d ]
  19  Mg def2-svp [ 10s 7p 1d | 4s 3p 1d ]
  20  Mg def2-svp [ 10s 7p 1d | 4s 3p 1d ]
  21  Mg def2-svp [ 10s 7p 1d | 4s 3p 1d ]
  22  Mg def2-svp [ 10s 7p 1d | 4s 3p 1d ]
  23  O  def2-svp [ 7s 4p 1d | 3s 2p 1d ]
  24  O  def2-svp [ 7s 4p 1d | 3s 2p 1d ]
  25  O  def2-svp [ 7s 4p 1d | 3s 2p 1d ]
  26  O  def2-svp [ 7s 4p 1d | 3s 2p 1d ]
  27  O  def2-svp [ 7s 4p 1d | 3s 2p 1d ]
  28  O  def2-svp [ 7s 4p 1d | 3s 2p 1d ]
  29  O  def2-svp [ 7s 4p 1d | 3s 2p 1d ]
  30  O  def2-svp [ 7s 4p 1d | 3s 2p 1d ]
  31  O  def2-svp [ 7s 4p 1d | 3s 2p 1d ]
  32  O  def2-svp [ 7s 4p 1d | 3s 2p 1d ]
  33  O  def2-svp [ 7s 4p 1d | 3s 2p 1d ]
  34  O  def2-svp [ 7s 4p 1d | 3s 2p 1d ]
  35  O  def2-svp [ 7s 4p 1d | 3s 2p 1d ]
  36  O  def2-svp [ 7s 4p 1d | 3s 2p 1d ]
  37  O  def2-svp [ 7s 4p 1d | 3s 2p 1d ]
  38  O  def2-svp [ 7s 4p 1d | 3s 2p 1d ]
  39  O  def2-svp [ 7s 4p 1d | 3s 2p 1d ]
  40  O  def2-svp [ 7s 4p 1d | 3s 2p 1d ]
  41  O  def2-svp [ 7s 4p 1d | 3s 2p 1d ]
  42  O  def2-svp [ 7s 4p 1d | 3s 2p 1d ]
  43  Mg nothing [ | ]
  44  Mg nothing [ | ]
  45  Mg nothing [ | ]
  46  Mg nothing [ | ]
  47  Mg nothing [ | ]
  48  Mg nothing [ | ]
  49  Mg nothing [ | ]
  50  Mg nothing [ | ]
  51  Mg nothing [ | ]
  52  Mg nothing [ | ]
  53  Mg nothing [ | ]
  54  Mg nothing [ | ]
  55  Mg nothing [ | ]
  56  Mg nothing [ | ]
  57  Mg nothing [ | ]
  58  Mg nothing [ | ]
  59  Mg nothing [ | ]
  60  Mg nothing [ | ]
  61  Mg nothing [ | ]
  62  Mg nothing [ | ]
  63  Mg nothing [ | ]
  64  Mg nothing [ | ]
  65  Mg nothing [ | ]
  66  Mg nothing [ | ]
  67  Mg nothing [ | ]
  68  Mg nothing [ | ]
  69  Mg nothing [ | ]
  70  Mg nothing [ | ]
  71  Mg nothing [ | ]
  72  Mg nothing [ | ]
  73  Mg nothing [ | ]
  74  Mg nothing [ | ]
  75  Mg nothing [ | ]
  76  Mg nothing [ | ]
  77  Mg nothing [ | ]
  78  Mg nothing [ | ]
  79  Mg nothing [ | ]
  80  Mg nothing [ | ]
  81  Mg nothing [ | ]
  82  Mg nothing [ | ]
  83  Mg nothing [ | ]
  84  Mg nothing [ | ]
  85  Mg nothing [ | ]
  86  Mg nothing [ | ]
  87  Mg nothing [ | ]
  88  Mg nothing [ | ]
  89  Mg nothing [ | ]
  90  Mg nothing [ | ]
  91  Mg nothing [ | ]
  92  Mg nothing [ | ]
  93  Mg nothing [ | ]
  94  Mg nothing [ | ]
  95  Mg nothing [ | ]
  96  Mg nothing [ | ]
  97  Mg nothing [ | ]
  98  Mg nothing [ | ]
  99  Mg nothing [ | ]
 100  Mg nothing [ | ]
 101  Mg nothing [ | ]
 102  Mg nothing [ | ]
 103  Mg nothing [ | ]
 104  Mg nothing [ | ]
 105  Mg nothing [ | ]
 106  Mg nothing [ | ]
 107  Mg nothing [ | ]
 108  Mg nothing [ | ]
 109  Mg nothing [ | ]
 110  Mg nothing [ | ]
 111  Mg nothing [ | ]
 112  Mg nothing [ | ]
 113  Mg nothing [ | ]
 114  Mg nothing [ | ]
 115  Mg nothing [ | ]
 116  Mg nothing [ | ]
 117  Mg nothing [ | ]
 118  Mg nothing [ | ]
 119  Mg nothing [ | ]
 
 Basis functions:
            1             2             3             4             5             6             7             8             9            10
    0    1Mg1s         1Mg2s         1Mg3s         1Mg4s         1Mg1pz        1Mg1py        1Mg1px        1Mg2pz        1Mg2py        1Mg2px    
    1    1Mg3pz        1Mg3py        1Mg3px        1Mg1d-2       1Mg1d-1       1Mg1d0        1Mg1d+1       1Mg1d+2       2O1s          2O2s      
    2    2O3s          2O1pz         2O1py         2O1px         2O2pz         2O2py         2O2px         2O1d-2        2O1d-1        2O1d0     
    3    2O1d+1        2O1d+2        3O1s          3O2s          3O3s          3O1pz         3O1py         3O1px         3O2pz         3O2py     
    4    3O2px         3O1d-2        3O1d-1        3O1d0         3O1d+1        3O1d+2        4O1s          4O2s          4O3s          4O1pz     
    5    4O1py         4O1px         4O2pz         4O2py         4O2px         4O1d-2        4O1d-1        4O1d0         4O1d+1        4O1d+2    
    6    5O1s          5O2s          5O3s          5O1pz         5O1py         5O1px         5O2pz         5O2py         5O2px         5O1d-2    
    7    5O1d-1        5O1d0         5O1d+1        5O1d+2        6O1s          6O2s          6O3s          6O1pz         6O1py         6O1px     
    8    6O2pz         6O2py         6O2px         6O1d-2        6O1d-1        6O1d0         6O1d+1        6O1d+2        7Mg1s         7Mg2s     
    9    7Mg3s         7Mg4s         7Mg1pz        7Mg1py        7Mg1px        7Mg2pz        7Mg2py        7Mg2px        7Mg3pz        7Mg3py    
   10    7Mg3px        7Mg1d-2       7Mg1d-1       7Mg1d0        7Mg1d+1       7Mg1d+2       8Mg1s         8Mg2s         8Mg3s         8Mg4s     
   11    8Mg1pz        8Mg1py        8Mg1px        8Mg2pz        8Mg2py        8Mg2px        8Mg3pz        8Mg3py        8Mg3px        8Mg1d-2   
   12    8Mg1d-1       8Mg1d0        8Mg1d+1       8Mg1d+2       9Mg1s         9Mg2s         9Mg3s         9Mg4s         9Mg1pz        9Mg1py    
   13    9Mg1px        9Mg2pz        9Mg2py        9Mg2px        9Mg3pz        9Mg3py        9Mg3px        9Mg1d-2       9Mg1d-1       9Mg1d0    
   14    9Mg1d+1       9Mg1d+2      10Mg1s        10Mg2s        10Mg3s        10Mg4s        10Mg1pz       10Mg1py       10Mg1px       10Mg2pz    
   15   10Mg2py       10Mg2px       10Mg3pz       10Mg3py       10Mg3px       10Mg1d-2      10Mg1d-1      10Mg1d0       10Mg1d+1      10Mg1d+2   
   16   11Mg1s        11Mg2s        11Mg3s        11Mg4s        11Mg1pz       11Mg1py       11Mg1px       11Mg2pz       11Mg2py       11Mg2px    
   17   11Mg3pz       11Mg3py       11Mg3px       11Mg1d-2      11Mg1d-1      11Mg1d0       11Mg1d+1      11Mg1d+2      12Mg1s        12Mg2s     
   18   12Mg3s        12Mg4s        12Mg1pz       12Mg1py       12Mg1px       12Mg2pz       12Mg2py       12Mg2px       12Mg3pz       12Mg3py    
   19   12Mg3px       12Mg1d-2      12Mg1d-1      12Mg1d0       12Mg1d+1      12Mg1d+2      13Mg1s        13Mg2s        13Mg3s        13Mg4s     
   20   13Mg1pz       13Mg1py       13Mg1px       13Mg2pz       13Mg2py       13Mg2px       13Mg3pz       13Mg3py       13Mg3px       13Mg1d-2   
   21   13Mg1d-1      13Mg1d0       13Mg1d+1      13Mg1d+2      14Mg1s        14Mg2s        14Mg3s        14Mg4s        14Mg1pz       14Mg1py    
   22   14Mg1px       14Mg2pz       14Mg2py       14Mg2px       14Mg3pz       14Mg3py       14Mg3px       14Mg1d-2      14Mg1d-1      14Mg1d0    
   23   14Mg1d+1      14Mg1d+2      15O1s         15O2s         15O3s         15O1pz        15O1py        15O1px        15O2pz        15O2py     
   24   15O2px        15O1d-2       15O1d-1       15O1d0        15O1d+1       15O1d+2       16O1s         16O2s         16O3s         16O1pz     
   25   16O1py        16O1px        16O2pz        16O2py        16O2px        16O1d-2       16O1d-1       16O1d0        16O1d+1       16O1d+2    
   26   17O1s         17O2s         17O3s         17O1pz        17O1py        17O1px        17O2pz        17O2py        17O2px        17O1d-2    
   27   17O1d-1       17O1d0        17O1d+1       17O1d+2       18O1s         18O2s         18O3s         18O1pz        18O1py        18O1px     
   28   18O2pz        18O2py        18O2px        18O1d-2       18O1d-1       18O1d0        18O1d+1       18O1d+2       19Mg1s        19Mg2s     
   29   19Mg3s        19Mg4s        19Mg1pz       19Mg1py       19Mg1px       19Mg2pz       19Mg2py       19Mg2px       19Mg3pz       19Mg3py    
   30   19Mg3px       19Mg1d-2      19Mg1d-1      19Mg1d0       19Mg1d+1      19Mg1d+2      20Mg1s        20Mg2s        20Mg3s        20Mg4s     
   31   20Mg1pz       20Mg1py       20Mg1px       20Mg2pz       20Mg2py       20Mg2px       20Mg3pz       20Mg3py       20Mg3px       20Mg1d-2   
   32   20Mg1d-1      20Mg1d0       20Mg1d+1      20Mg1d+2      21Mg1s        21Mg2s        21Mg3s        21Mg4s        21Mg1pz       21Mg1py    
   33   21Mg1px       21Mg2pz       21Mg2py       21Mg2px       21Mg3pz       21Mg3py       21Mg3px       21Mg1d-2      21Mg1d-1      21Mg1d0    
   34   21Mg1d+1      21Mg1d+2      22Mg1s        22Mg2s        22Mg3s        22Mg4s        22Mg1pz       22Mg1py       22Mg1px       22Mg2pz    
   35   22Mg2py       22Mg2px       22Mg3pz       22Mg3py       22Mg3px       22Mg1d-2      22Mg1d-1      22Mg1d0       22Mg1d+1      22Mg1d+2   
   36   23O1s         23O2s         23O3s         23O1pz        23O1py        23O1px        23O2pz        23O2py        23O2px        23O1d-2    
   37   23O1d-1       23O1d0        23O1d+1       23O1d+2       24O1s         24O2s         24O3s         24O1pz        24O1py        24O1px     
   38   24O2pz        24O2py        24O2px        24O1d-2       24O1d-1       24O1d0        24O1d+1       24O1d+2       25O1s         25O2s      
   39   25O3s         25O1pz        25O1py        25O1px        25O2pz        25O2py        25O2px        25O1d-2       25O1d-1       25O1d0     
   40   25O1d+1       25O1d+2       26O1s         26O2s         26O3s         26O1pz        26O1py        26O1px        26O2pz        26O2py     
   41   26O2px        26O1d-2       26O1d-1       26O1d0        26O1d+1       26O1d+2       27O1s         27O2s         27O3s         27O1pz     
   42   27O1py        27O1px        27O2pz        27O2py        27O2px        27O1d-2       27O1d-1       27O1d0        27O1d+1       27O1d+2    
   43   28O1s         28O2s         28O3s         28O1pz        28O1py        28O1px        28O2pz        28O2py        28O2px        28O1d-2    
   44   28O1d-1       28O1d0        28O1d+1       28O1d+2       29O1s         29O2s         29O3s         29O1pz        29O1py        29O1px     
   45   29O2pz        29O2py        29O2px        29O1d-2       29O1d-1       29O1d0        29O1d+1       29O1d+2       30O1s         30O2s      
   46   30O3s         30O1pz        30O1py        30O1px        30O2pz        30O2py        30O2px        30O1d-2       30O1d-1       30O1d0     
   47   30O1d+1       30O1d+2       31O1s         31O2s         31O3s         31O1pz        31O1py        31O1px        31O2pz        31O2py     
   48   31O2px        31O1d-2       31O1d-1       31O1d0        31O1d+1       31O1d+2       32O1s         32O2s         32O3s         32O1pz     
   49   32O1py        32O1px        32O2pz        32O2py        32O2px        32O1d-2       32O1d-1       32O1d0        32O1d+1       32O1d+2    
   50   33O1s         33O2s         33O3s         33O1pz        33O1py        33O1px        33O2pz        33O2py        33O2px        33O1d-2    
   51   33O1d-1       33O1d0        33O1d+1       33O1d+2       34O1s         34O2s         34O3s         34O1pz        34O1py        34O1px     
   52   34O2pz        34O2py        34O2px        34O1d-2       34O1d-1       34O1d0        34O1d+1       34O1d+2       35O1s         35O2s      
   53   35O3s         35O1pz        35O1py        35O1px        35O2pz        35O2py        35O2px        35O1d-2       35O1d-1       35O1d0     
   54   35O1d+1       35O1d+2       36O1s         36O2s         36O3s         36O1pz        36O1py        36O1px        36O2pz        36O2py     
   55   36O2px        36O1d-2       36O1d-1       36O1d0        36O1d+1       36O1d+2       37O1s         37O2s         37O3s         37O1pz     
   56   37O1py        37O1px        37O2pz        37O2py        37O2px        37O1d-2       37O1d-1       37O1d0        37O1d+1       37O1d+2    
   57   38O1s         38O2s         38O3s         38O1pz        38O1py        38O1px        38O2pz        38O2py        38O2px        38O1d-2    
   58   38O1d-1       38O1d0        38O1d+1       38O1d+2       39O1s         39O2s         39O3s         39O1pz        39O1py        39O1px     
   59   39O2pz        39O2py        39O2px        39O1d-2       39O1d-1       39O1d0        39O1d+1       39O1d+2       40O1s         40O2s      
   60   40O3s         40O1pz        40O1py        40O1px        40O2pz        40O2py        40O2px        40O1d-2       40O1d-1       40O1d0     
   61   40O1d+1       40O1d+2       41O1s         41O2s         41O3s         41O1pz        41O1py        41O1px        41O2pz        41O2py     
   62   41O2px        41O1d-2       41O1d-1       41O1d0        41O1d+1       41O1d+2       42O1s         42O2s         42O3s         42O1pz     
   63   42O1py        42O1px        42O2pz        42O2py        42O2px        42O1d-2       42O1d-1       42O1d0        42O1d+1       42O1d+2    
 
 Maximum number of basis functions per shell:   35
 Total number of basis functions:    640
 
 
 Effective core potentials:
 
  43  Mg ecp-12              
  44  Mg ecp-12              
  45  Mg ecp-12              
  46  Mg ecp-12              
  47  Mg ecp-12              
  48  Mg ecp-12              
  49  Mg ecp-12              
  50  Mg ecp-12              
  51  Mg ecp-12              
  52  Mg ecp-12              
  53  Mg ecp-12              
  54  Mg ecp-12              
  55  Mg ecp-12              
  56  Mg ecp-12              
  57  Mg ecp-12              
  58  Mg ecp-12              
  59  Mg ecp-12              
  60  Mg ecp-12              
  61  Mg ecp-12              
  62  Mg ecp-12              
  63  Mg ecp-12              
  64  Mg ecp-12              
  65  Mg ecp-12              
  66  Mg ecp-12              
  67  Mg ecp-12              
  68  Mg ecp-12              
  69  Mg ecp-12              
  70  Mg ecp-12              
  71  Mg ecp-12              
  72  Mg ecp-12              
  73  Mg ecp-12              
  74  Mg ecp-12              
  75  Mg ecp-12              
  76  Mg ecp-12              
  77  Mg ecp-12              
  78  Mg ecp-12              
  79  Mg ecp-12              
  80  Mg ecp-12              
  81  Mg ecp-12              
  82  Mg ecp-12              
  83  Mg ecp-12              
  84  Mg ecp-12              
  85  Mg ecp-12              
  86  Mg ecp-12              
  87  Mg ecp-12              
  88  Mg ecp-12              
  89  Mg ecp-12              
  90  Mg ecp-12              
  91  Mg ecp-12              
  92  Mg ecp-12              
  93  Mg ecp-12              
  94  Mg ecp-12              
  95  Mg ecp-12              
  96  Mg ecp-12              
  97  Mg ecp-12              
  98  Mg ecp-12              
  99  Mg ecp-12              
 100  Mg ecp-12              
 101  Mg ecp-12              
 102  Mg ecp-12              
 103  Mg ecp-12              
 104  Mg ecp-12              
 105  Mg ecp-12              
 106  Mg ecp-12              
 107  Mg ecp-12              
 108  Mg ecp-12              
 109  Mg ecp-12              
 110  Mg ecp-12              
 111  Mg ecp-12              
 112  Mg ecp-12              
 113  Mg ecp-12              
 114  Mg ecp-12              
 115  Mg ecp-12              
 116  Mg ecp-12              
 117  Mg ecp-12              
 118  Mg ecp-12              
 119  Mg ecp-12              
 
 Calculation of prescreening integrals...
 CPU time [min]:    18.885                   Wall time [min]:     0.569
 
 Calculation of two-center Coulomb integrals...
   1% done.
  12% done.
  23% done.
  34% done.
  45% done.
  56% done.
  67% done.
  78% done.
  89% done.
 100% done.
 CPU time [min]:    19.041                   Wall time [min]:     0.573
 
 Cholesky decomposition of the inverse of the two-center matrix...
 CPU time [min]:    19.337                   Wall time [min]:     0.587
 
 Calculation of three-center Coulomb integrals...
   1% done.
  12% done.
  23% done.
  34% done.
  45% done.
  56% done.
  67% done.
  79% done.
  90% done.
 100% done.
 CPU time [min]:    71.138                   Wall time [min]:     2.156

 ************************ 2023-04-26 05:13:27 *************************
 Executing drpa...

 Three-index integral transformation and DF-MP2 calculation
 
 Allocation of 200.0 Gbytes of memory...
 Minimal memory requirement for (ai|P) integrals:      611.7 MB

 Calculating (ai|P) integrals...
 Number of integral batches:    2
 Occupied indices per batch:  101
 
 Transforming integrals of batch 1...
 CPU time [min]:  2446.115                   Wall time [min]:    91.769
 Transforming integrals of batch 2...
 CPU time [min]:  2778.650                   Wall time [min]:   111.184
 
 
 
 Reference energy [au]:                    -14058.533960121084
 DF-MP2 singlet pair energy [au]:              -6.059127405497
 DF-MP2 triplet pair energy [au]:              -2.204340697303
 DF-SCS-MP2 correlation energy [au]:           -8.005733119031
 DF-SCS-MP2 energy [au]:                   -14066.539693240115
 DF-SOS-MP2 correlation energy [au]:           -7.876865627146
 DF-SOS-MP2 energy [au]:                   -14066.410825748229
 DF-MP2 correlation energy [au]:               -8.263468102800
 DF-MP2 energy [au]:                       -14066.797428223883
 
 ************************ 2023-04-26 07:04:43 *************************
                      Normal termination of mrcc.
 **********************************************************************
