 vasp.6.3.0 20Jan22 (build Mar 06 2023 08:24:33) complex                        
  
 executed on             LinuxIFC date 2023.04.05  16:38:08
 running on  384 total cores
 distrk:  each k-point on  384 cores,    1 groups
 distr:  one band on NCORE=   4 cores,   96 groups


--------------------------------------------------------------------------------------------------------


 INCAR:
   ENCUT = 500
   SIGMA = 0.0001
   EDIFF = 1E-4
   LHFCALC = .TRUE.
   AEXX = 1.0
   ALGO = C
   NCORE = 4

 POTCAR:    PAW_PBE C_GW 28Sep2005                
 POTCAR:    PAW_PBE Mg_pv_GW 20Apr2010            
 POTCAR:    PAW_PBE O_GW_new 19Mar2012            
 -----------------------------------------------------------------------------
|                                                                             |
|           W    W    AA    RRRRR   N    N  II  N    N   GGGG   !!!           |
|           W    W   A  A   R    R  NN   N  II  NN   N  G    G  !!!           |
|           W    W  A    A  R    R  N N  N  II  N N  N  G       !!!           |
|           W WW W  AAAAAA  RRRRR   N  N N  II  N  N N  G  GGG   !            |
|           WW  WW  A    A  R   R   N   NN  II  N   NN  G    G                |
|           W    W  A    A  R    R  N    N  II  N    N   GGGG   !!!           |
|                                                                             |
|     For optimal performance we recommend to set                             |
|       NCORE = 2 up to number-of-cores-per-socket                            |
|     NCORE specifies how many cores store one orbital (NPAR=cpu/NCORE).      |
|     This setting can greatly improve the performance of VASP for DFT.       |
|     The default, NCORE=1 might be grossly inefficient on modern             |
|     multi-core architectures or massively parallel machines. Do your        |
|     own testing! More info at https://www.vasp.at/wiki/index.php/NCORE      |
|     Unfortunately you need to use the default for GW and RPA                |
|     calculations (for HF NCORE is supported but not extensively tested      |
|     yet).                                                                   |
|                                                                             |
 -----------------------------------------------------------------------------

 POTCAR:    PAW_PBE C_GW 28Sep2005                
   SHA256 =  2c64eee1059aeb37bcbfbbf93191b6229a866e6b7fb7be04c2badc02647cde23 C_GW/POTCAR           
   COPYR  = (c) Copyright 28Sep2005 Georg Kresse                                                    
   COPYR  = This file is part of the software VASP. Any use, copying, and all other rights are regul
   COPYR  = If you do not have a valid VASP license, you may not use, copy or distribute this file. 
   VRHFIN =C: s2p2                                                                                  
   LEXCH  = PE                                                                                      
   EATOM  =   147.1560 eV,   10.8157 Ry                                                             
                                                                                                    
   TITEL  = PAW_PBE C_GW 28Sep2005                                                                  
   LULTRA =        F    use ultrasoft PP ?                                                          
   IUNSCR =        0    unscreen: 0-lin 1-nonlin 2-no                                               
   RPACOR =    0.000    partial core radius                                                         
   POMASS =   12.011; ZVAL   =    4.000    mass and valenz                                          
   RCORE  =    1.500    outmost cutoff radius                                                       
   RWIGS  =    1.630; RWIGS  =    0.863    wigner-seitz radius (au A)                               
   ENMAX  =  413.992; ENMIN  =  310.494 eV                                                          
   ICORE  =        2    local potential                                                             
   LCOR   =        T    correct aug charges                                                         
   LPAW   =        T    paw PP                                                                      
   EAUG   =  644.873                                                                                
   DEXC   =    0.000                                                                                
   RMAX   =    1.529    core radius for proj-oper                                                   
   RAUG   =    1.300    factor for augmentation sphere                                              
   RDEP   =    1.501    radius for radial grids                                                     
   RDEPT  =    1.300    core radius for aug-charge                                                  
                                                                                                    
   Atomic configuration                                                                             
    4 entries                                                                                       
     n  l   j            E        occ.                                                              
     1  0  0.50      -273.3789   2.0000                                                             
     2  0  0.50       -13.7508   2.0000                                                             
     2  1  0.50        -5.2854   2.0000                                                             
     3  2  1.50        -5.4423   0.0000                                                             
   Description                                                                                      
     l       E           TYP  RCUT    TYP  RCUT                                                     
     0    -13.7508457     23  1.200                                                                 
     0     95.2407820     23  1.200                                                                 
     1     -5.2854382     23  1.500                                                                 
     1    108.8466080     23  1.500                                                                 
     2     -5.4423304      7  1.500                                                                 
  local pseudopotential read in
  kinetic energy density of atom read in
  atomic valenz-charges read in
  non local Contribution for L=           0  read in
    real space projection operators read in
  non local Contribution for L=           0  read in
    real space projection operators read in
  non local Contribution for L=           1  read in
    real space projection operators read in
  non local Contribution for L=           1  read in
    real space projection operators read in
    PAW grid and wavefunctions read in
 
   number of l-projection  operators is LMAX  =           4
   number of lm-projection operators is LMMAX =           8
 
 POTCAR:    PAW_PBE Mg_pv_GW 20Apr2010            
   SHA256 =  5739f08330ef6d26412aa87e74e015bb45abc7fed99ee257d36c3bd364af7e1f Mg_pv_GW/POTCAR       
   COPYR  = (c) Copyright 20Apr2010 Georg Kresse                                                    
   COPYR  = This file is part of the software VASP. Any use, copying, and all other rights are regul
   COPYR  = If you do not have a valid VASP license, you may not use, copy or distribute this file. 
   VRHFIN =Mg: p6s2                                                                                 
   LEXCH  = PE                                                                                      
   EATOM  =  1056.7344 eV,   77.6678 Ry                                                             
                                                                                                    
   TITEL  = PAW_PBE Mg_pv_GW 20Apr2010                                                              
   LULTRA =        F    use ultrasoft PP ?                                                          
   IUNSCR =        1    unscreen: 0-lin 1-nonlin 2-no                                               
   RPACOR =    1.500    partial core radius                                                         
   POMASS =   24.305; ZVAL   =    8.000    mass and valenz                                          
   RCORE  =    2.000    outmost cutoff radius                                                       
   RWIGS  =    2.000; RWIGS  =    1.058    wigner-seitz radius (au A)                               
   ENMAX  =  403.929; ENMIN  =  302.947 eV                                                          
   RCLOC  =    1.506    cutoff for local pot                                                        
   LCOR   =        T    correct aug charges                                                         
   LPAW   =        T    paw PP                                                                      
   EAUG   =  758.780                                                                                
   DEXC   =    0.000                                                                                
   RMAX   =    2.045    core radius for proj-oper                                                   
   RAUG   =    1.300    factor for augmentation sphere                                              
   RDEP   =    2.025    radius for radial grids                                                     
   RDEPT  =    1.557    core radius for aug-charge                                                  
                                                                                                    
   Atomic configuration                                                                             
    5 entries                                                                                       
     n  l   j            E        occ.                                                              
     1  0  0.50     -1259.6230   2.0000                                                             
     2  0  0.50       -79.8442   2.0000                                                             
     2  1  1.50       -46.6121   6.0000                                                             
     3  0  0.50        -4.7055   2.0000                                                             
     3  2  1.50        -1.3606   0.0000                                                             
   Description                                                                                      
     l       E           TYP  RCUT    TYP  RCUT                                                     
     1    -46.6121068     23  1.600                                                                 
     1    -47.9726894     23  1.600                                                                 
     1     81.6349560     23  1.800                                                                 
     0     -4.7054661     23  2.000                                                                 
     0     68.0291300     23  2.000                                                                 
     2     40.8174780     23  1.800                                                                 
  local pseudopotential read in
  partial core-charges read in
  partial kinetic energy density read in
  kinetic energy density of atom read in
  atomic valenz-charges read in
  non local Contribution for L=           1  read in
    real space projection operators read in
  non local Contribution for L=           1  read in
    real space projection operators read in
  non local Contribution for L=           1  read in
    real space projection operators read in
  non local Contribution for L=           0  read in
    real space projection operators read in
  non local Contribution for L=           0  read in
    real space projection operators read in
  non local Contribution for L=           2  read in
    real space projection operators read in
    PAW grid and wavefunctions read in
 
   number of l-projection  operators is LMAX  =           6
   number of lm-projection operators is LMMAX =          16
 
 POTCAR:    PAW_PBE O_GW_new 19Mar2012            
   SHA256 =  c493eb4e480bc193c6922e0b8c73e7a108f48fca6e73afddd92a880a1c2b3374 O_GW_new/POTCAR       
   COPYR  = (c) Copyright 19Mar2012 Georg Kresse                                                    
   COPYR  = This file is part of the software VASP. Any use, copying, and all other rights are regul
   COPYR  = If you do not have a valid VASP license, you may not use, copy or distribute this file. 
   VRHFIN =O: s2p4                                                                                  
   LEXCH  = PE                                                                                      
   EATOM  =   432.3788 eV,   31.7789 Ry                                                             
                                                                                                    
   TITEL  = PAW_PBE O_GW_new 19Mar2012                                                              
   LULTRA =        F    use ultrasoft PP ?                                                          
   IUNSCR =        1    unscreen: 0-lin 1-nonlin 2-no                                               
   RPACOR =    0.800    partial core radius                                                         
   POMASS =   16.000; ZVAL   =    6.000    mass and valenz                                          
   RCORE  =    1.600    outmost cutoff radius                                                       
   RWIGS  =    1.600; RWIGS  =    0.847    wigner-seitz radius (au A)                               
   ENMAX  =  434.431; ENMIN  =  325.824 eV                                                          
   ICORE  =        3    local potential                                                             
   LCOR   =        T    correct aug charges                                                         
   LPAW   =        T    paw PP                                                                      
   EAUG   = 1139.609                                                                                
   DEXC   =    0.000                                                                                
   RMAX   =    1.629    core radius for proj-oper                                                   
   RAUG   =    1.300    factor for augmentation sphere                                              
   RDEP   =    1.652    radius for radial grids                                                     
   RDEPT  =    1.200    core radius for aug-charge                                                  
                                                                                                    
   Atomic configuration                                                                             
    5 entries                                                                                       
     n  l   j            E        occ.                                                              
     1  0  0.50      -514.6923   2.0000                                                             
     2  0  0.50       -23.9615   2.0000                                                             
     2  1  0.50        -9.0305   4.0000                                                             
     3  2  1.50        -9.5241   0.0000                                                             
     4  3  2.50        -9.5241   0.0000                                                             
   Description                                                                                      
     l       E           TYP  RCUT    TYP  RCUT                                                     
     0    -23.9615316     23  1.150                                                                 
     0    -25.3221142     23  1.150                                                                 
     0    244.9048680     23  1.300                                                                 
     1     -9.0304908     23  1.500                                                                 
     1     -6.9258396     23  1.500                                                                 
     1    122.4524340     23  1.500                                                                 
     2     13.6058260     23  1.500                                                                 
     2    190.4815640     23  1.600                                                                 
     3     54.4233040     23  1.400                                                                 
  local pseudopotential read in
  partial core-charges read in
  partial kinetic energy density read in
  kinetic energy density of atom read in
  atomic valenz-charges read in
  non local Contribution for L=           0  read in
    real space projection operators read in
  non local Contribution for L=           0  read in
    real space projection operators read in
  non local Contribution for L=           0  read in
    real space projection operators read in
  non local Contribution for L=           1  read in
    real space projection operators read in
  non local Contribution for L=           1  read in
    real space projection operators read in
  non local Contribution for L=           1  read in
    real space projection operators read in
  non local Contribution for L=           2  read in
    real space projection operators read in
  non local Contribution for L=           2  read in
    real space projection operators read in
    PAW grid and wavefunctions read in
 
   number of l-projection  operators is LMAX  =           8
   number of lm-projection operators is LMMAX =          22
 
 -----------------------------------------------------------------------------
|                                                                             |
|               ----> ADVICE to this user running VASP <----                  |
|                                                                             |
|     You have a (more or less) 'large supercell' and for larger cells it     |
|     might be more efficient to use real-space projection operators.         |
|     Therefore, try LREAL= Auto in the INCAR file.                           |
|     Mind: For very accurate calculation, you might also keep the            |
|     reciprocal projection scheme (i.e. LREAL=.FALSE.).                      |
|                                                                             |
 -----------------------------------------------------------------------------

  PAW_PBE C_GW 28Sep2005                :
 energy of atom  1       EATOM= -147.1560
 kinetic energy error for atom=    0.0076 (will be added to EATOM!!)
  PAW_PBE Mg_pv_GW 20Apr2010            :
 energy of atom  2       EATOM=-1056.7344
 kinetic energy error for atom=    0.0347 (will be added to EATOM!!)
  PAW_PBE O_GW_new 19Mar2012            :
 energy of atom  3       EATOM= -432.3788
 kinetic energy error for atom=    0.0278 (will be added to EATOM!!)
 
 
 POSCAR:  C  O Mg  O
  positions in direct lattice
  No initial velocities read in
 exchange correlation table for  LEXCH =        8
   RHO(1)=    0.500       N(1)  =     2000
   RHO(2)=  100.500       N(2)  =     4000
 


--------------------------------------------------------------------------------------------------------


 ion  position               nearest neighbor table
   1  0.500  0.500  0.579-  34 1.15
   2  0.000  0.750  0.368-  24 2.11  21 2.11  29 2.11  20 2.11  18 2.15
   3  0.250  0.000  0.368-  28 2.11  25 2.11  21 2.11  20 2.11  19 2.15
   4  0.000  0.000  0.465-  18 2.11  19 2.11  22 2.11  27 2.11  20 2.11
   5  0.250  0.750  0.465-  21 2.11  19 2.11  18 2.11  23 2.11  26 2.11
   6  0.000  0.250  0.368-  24 2.11  25 2.11  33 2.11  20 2.11  22 2.15
   7  0.250  0.500  0.368-  32 2.11  25 2.11  21 2.11  24 2.11  23 2.15
   8  0.000  0.500  0.465-  23 2.10  31 2.10  24 2.11  22 2.11  18 2.11
   9  0.250  0.250  0.465-  25 2.11  22 2.11  19 2.11  23 2.11  30 2.11
  10  0.500  0.750  0.368-  32 2.11  29 2.11  21 2.11  28 2.11  26 2.15
  11  0.750  0.000  0.368-  28 2.11  29 2.11  33 2.11  20 2.11  27 2.15
  12  0.500  0.000  0.465-  26 2.10  30 2.10  28 2.11  19 2.11  27 2.11
  13  0.750  0.750  0.465-  29 2.11  27 2.11  18 2.11  26 2.11  31 2.11
  14  0.500  0.250  0.368-  32 2.11  25 2.11  33 2.11  28 2.11  30 2.15
  15  0.750  0.500  0.368-  32 2.11  29 2.11  33 2.11  24 2.11  31 2.15
  16  0.500  0.500  0.467-  23 2.12  26 2.12  30 2.12  31 2.12  32 2.14
  17  0.750  0.250  0.465-  33 2.11  27 2.11  22 2.11  31 2.11  30 2.11
  18  0.000  0.750  0.467-   4 2.11   5 2.11  13 2.11   8 2.11   2 2.15
  19  0.250  0.000  0.467-   4 2.11   5 2.11   9 2.11  12 2.11   3 2.15
  20  0.000  0.000  0.368-   4 2.11   3 2.11   2 2.11   6 2.11  11 2.11
  21  0.250  0.750  0.368-   5 2.11   3 2.11   2 2.11   7 2.11  10 2.11
  22  0.000  0.250  0.467-   4 2.11   9 2.11  17 2.11   8 2.11   6 2.15
  23  0.249  0.500  0.467-   8 2.10   5 2.11   9 2.11  16 2.12   7 2.15
  24  0.000  0.500  0.368-   8 2.11   6 2.11   2 2.11   7 2.11  15 2.11
  25  0.250  0.250  0.368-   9 2.11   6 2.11   3 2.11   7 2.11  14 2.11
  26  0.500  0.751  0.467-  12 2.10   5 2.11  13 2.11  16 2.12  10 2.15
  27  0.750  0.000  0.467-   4 2.11  13 2.11  17 2.11  12 2.11  11 2.15
  28  0.500  0.000  0.368-  12 2.11  11 2.11   3 2.11  10 2.11  14 2.11
  29  0.750  0.750  0.368-  13 2.11  11 2.11   2 2.11  10 2.11  15 2.11
  30  0.500  0.249  0.467-  12 2.10   9 2.11  17 2.11  16 2.12  14 2.15
  31  0.751  0.500  0.467-   8 2.10  13 2.11  17 2.11  16 2.12  15 2.15
  32  0.500  0.500  0.368-   7 2.11  10 2.11  14 2.11  15 2.11  16 2.14
  33  0.750  0.250  0.368-  17 2.11  11 2.11   6 2.11  15 2.11  14 2.11
  34  0.500  0.500  0.632-   1 1.15
 
  LATTYP: Found a simple tetragonal cell.
 ALAT       =     8.4409846542
 C/A-ratio  =     2.5754268781
  
  Lattice vectors:
  
 A1 = (   8.4409846542,   0.0000000000,   0.0000000000)
 A2 = (   0.0000000000,   8.4409846542,   0.0000000000)
 A3 = (   0.0000000000,   0.0000000000,  21.7391387558)


Analysis of symmetry for initial positions (statically):
=====================================================================
 Subroutine PRICEL returns:
 Original cell was already a primitive cell.
 

 Routine SETGRP: Setting up the symmetry group for a 
 simple tetragonal supercell.


 Subroutine GETGRP returns: Found  8 space group operations
 (whereof  8 operations were pure point group operations)
 out of a pool of 16 trial point group operations.


The static configuration has the point symmetry C_4v.


Analysis of symmetry for dynamics (positions and initial velocities):
=====================================================================
 Subroutine PRICEL returns:
 Original cell was already a primitive cell.
 

 Routine SETGRP: Setting up the symmetry group for a 
 simple tetragonal supercell.


 Subroutine GETGRP returns: Found  8 space group operations
 (whereof  8 operations were pure point group operations)
 out of a pool of 16 trial point group operations.


The dynamic configuration has the point symmetry C_4v.


 Subroutine INISYM returns: Found  8 space group operations
 (whereof  8 operations are pure point group operations),
 and found     1 'primitive' translations


----------------------------------------------------------------------------------------

                                     Primitive cell                                     

  volume of cell :    1548.9185

  direct lattice vectors                    reciprocal lattice vectors
     8.440984654  0.000000000  0.000000000     0.118469591  0.000000000  0.000000000
     0.000000000  8.440984654  0.000000000     0.000000000  0.118469591  0.000000000
     0.000000000  0.000000000 21.739138756     0.000000000  0.000000000  0.045999982

  length of vectors
     8.440984654  8.440984654 21.739138756     0.118469591  0.118469591  0.045999982

  position of ions in fractional coordinates (direct lattice)
     0.500000000  0.500000000  0.579246450
     0.000000000  0.749939268  0.368314410
     0.250060732  0.000000000  0.368314410
     0.000000000  0.000000000  0.465122975
     0.249858327  0.750141673  0.464950515
     0.000000000  0.250060732  0.368314410
     0.250378379  0.500000000  0.368448135
     0.000000000  0.500000000  0.464995389
     0.249858327  0.249858327  0.464950515
     0.500000000  0.749621621  0.368448135
     0.749939268  0.000000000  0.368314410
     0.500000000  0.000000000  0.464995389
     0.750141673  0.750141673  0.464950515
     0.500000000  0.250378379  0.368448135
     0.749621621  0.500000000  0.368448135
     0.500000000  0.500000000  0.466959464
     0.750141673  0.249858327  0.464950515
     0.000000000  0.750218533  0.467314953
     0.249781467  0.000000000  0.467314953
     0.000000000  0.000000000  0.368046197
     0.249945770  0.750054230  0.368094495
     0.000000000  0.249781467  0.467314953
     0.248822710  0.500000000  0.467220380
     0.000000000  0.500000000  0.367999859
     0.249945770  0.249945770  0.368094495
     0.500000000  0.751177290  0.467220380
     0.750218533  0.000000000  0.467314953
     0.500000000  0.000000000  0.367999859
     0.750054230  0.750054230  0.368094495
     0.500000000  0.248822710  0.467220380
     0.751177290  0.500000000  0.467220380
     0.500000000  0.500000000  0.368459745
     0.750054230  0.249945770  0.368094495
     0.500000000  0.500000000  0.632000141

  ion indices of the primitive-cell ions
   primitive index   ion index
                 1           1
                 2           2
                 3           3
                 4           4
                 5           5
                 6           6
                 7           7
                 8           8
                 9           9
                10          10
                11          11
                12          12
                13          13
                14          14
                15          15
                16          16
                17          17
                18          18
                19          19
                20          20
                21          21
                22          22
                23          23
                24          24
                25          25
                26          26
                27          27
                28          28
                29          29
                30          30
                31          31
                32          32
                33          33
                34          34

----------------------------------------------------------------------------------------

 
 
 KPOINTS: Automatically generated mesh            

Automatic generation of k-mesh.
 Grid dimensions read from file:
 generate k-points for:    2    2    1

 Generating k-lattice:

  Cartesian coordinates                     Fractional coordinates (reciprocal lattice)
     0.059234796  0.000000000  0.000000000     0.500000000  0.000000000  0.000000000
     0.000000000  0.059234796  0.000000000     0.000000000  0.500000000  0.000000000
     0.000000000  0.000000000  0.045999982     0.000000000  0.000000000  1.000000000

  Length of vectors
     0.059234796  0.059234796  0.045999982

  Shift w.r.t. Gamma in fractional coordinates (k-lattice)
     0.000000000  0.000000000  0.000000000

 
 Subroutine IBZKPT returns following result:
 ===========================================
 
 Found      3 irreducible k-points:
 
 Following reciprocal coordinates:
            Coordinates               Weight
  0.000000  0.000000  0.000000      1.000000
  0.500000  0.000000  0.000000      2.000000
  0.500000  0.500000  0.000000      1.000000
 
 Following cartesian coordinates:
            Coordinates               Weight
  0.000000  0.000000  0.000000      1.000000
  0.059235  0.000000  0.000000      2.000000
  0.059235  0.059235  0.000000      1.000000
 
 
 Subroutine IBZKPT_HF returns following result:
 ==============================================
 
 Found      4 k-points in 1st BZ
 the following      4 k-points will be used (e.g. in the exchange kernel)
 Following reciprocal coordinates:   # in IRBZ
  0.000000  0.000000  0.000000    0.25000000   1 t-inv F
  0.500000  0.000000  0.000000    0.25000000   2 t-inv F
  0.500000  0.500000  0.000000    0.25000000   3 t-inv F
  0.000000  0.500000  0.000000    0.25000000   2 t-inv F


--------------------------------------------------------------------------------------------------------




 Dimension of arrays:
   k-points           NKPTS =      3   k-points in BZ     NKDIM =      4   number of bands    NBANDS=    192
   number of dos      NEDOS =    301   number of ions     NIONS =     34
   non local maximal  LDIM  =      8   non local SUM 2l+1 LMDIM =     22
   total plane-waves  NPLWV = 276480
   max r-space proj   IRMAX =      1   max aug-charges    IRDMAX=   3717
   dimension x,y,z NGX =    48 NGY =   48 NGZ =  120
   dimension x,y,z NGXF=    96 NGYF=   96 NGZF=  240
   support grid    NGXF=    96 NGYF=   96 NGZF=  240
   ions per type =               1  16  17
   NGX,Y,Z   is equivalent  to a cutoff of   9.45,  9.45,  9.18 a.u.
   NGXF,Y,Z  is equivalent  to a cutoff of  18.91, 18.91, 18.35 a.u.

 SYSTEM =  unknown system                          
 POSCAR =   C  O Mg  O                             

 Startparameter for this run:
   NWRITE =      2    write-flag & timer
   PREC   = normal    normal or accurate (medium, high low for compatibility)
   ISTART =      1    job   : 0-new  1-cont  2-samecut
   ICHARG =      0    charge: 1-file 2-atom 10-const
   ISPIN  =      1    spin polarized calculation?
   LNONCOLLINEAR =      F non collinear calculations
   LSORBIT =      F    spin-orbit coupling
   INIWAV =      1    electr: 0-lowe 1-rand  2-diag
   LASPH  =      F    aspherical Exc in radial PAW
 Electronic Relaxation 1
   ENCUT  =  500.0 eV  36.75 Ry    6.06 a.u.  15.39 15.39 39.64*2*pi/ulx,y,z
   ENINI  =  500.0     initial cutoff
   ENAUG  = 1139.6 eV  augmentation charge cutoff
   NELM   =     60;   NELMIN=  2; NELMDL=  0     # of ELM steps 
   EDIFF  = 0.1E-03   stopping-criterion for ELM
   LREAL  =      F    real-space projection
   NLSPLINE    = F    spline interpolate recip. space projectors
   LCOMPAT=      F    compatible to vasp.4.4
   GGA_COMPAT  = T    GGA compatible to vasp.4.4-vasp.4.6
   LMAXPAW     = -100 max onsite density
   LMAXMIX     =    2 max onsite mixed and CHGCAR
   VOSKOWN=      0    Vosko Wilk Nusair interpolation
   ROPT   =    0.00000   0.00000   0.00000
 Ionic relaxation
   EDIFFG = 0.1E-02   stopping-criterion for IOM
   NSW    =      0    number of steps for IOM
   NBLOCK =      1;   KBLOCK =      1    inner block; outer block 
   IBRION =     -1    ionic relax: 0-MD 1-quasi-New 2-CG
   NFREE  =      0    steps in history (QN), initial steepest desc. (CG)
   ISIF   =      0    stress and relaxation
   IWAVPR =     10    prediction:  0-non 1-charg 2-wave 3-comb
   ISYM   =      3    0-nonsym 1-usesym 2-fastsym
   LCORR  =      T    Harris-Foulkes like correction to forces

   POTIM  = 0.5000    time-step for ionic-motion
   TEIN   =    0.0    initial temperature
   TEBEG  =    0.0;   TEEND  =   0.0 temperature during run
   SMASS  =  -3.00    Nose mass-parameter (am)
   estimated Nose-frequenzy (Omega)   =  0.10E-29 period in steps = 0.13E+47 mass=  -0.163E-26a.u.
   SCALEE = 1.0000    scale energy and forces
   NPACO  =    256;   APACO  = 10.0  distance and # of slots for P.C.
   PSTRESS=    0.0 pullay stress

  Mass of Ions in am
   POMASS =  12.01 24.30 16.00
  Ionic Valenz
   ZVAL   =   4.00  8.00  6.00
  Atomic Wigner-Seitz radii
   RWIGS  =  -1.00 -1.00 -1.00
  virtual crystal weights 
   VCA    =   1.00  1.00  1.00
   NELECT =     234.0000    total number of electrons
   NUPDOWN=      -1.0000    fix difference up-down

 DOS related values:
   EMIN   =  10.00;   EMAX   =-10.00  energy-range for DOS
   EFERMI =   0.00
   ISMEAR =     1;   SIGMA  =   0.00  broadening in eV -4-tet -1-fermi 0-gaus

 Electronic relaxation 2 (details)
   IALGO  =     58    algorithm
   LDIAG  =      T    sub-space diagonalisation (order eigenvalues)
   LSUBROT=      F    optimize rotation matrix (better conditioning)
   TURBO    =      0    0=normal 1=particle mesh
   IRESTART =      0    0=no restart 2=restart with 2 vectors
   NREBOOT  =      0    no. of reboots
   NMIN     =      0    reboot dimension
   EREF     =   0.00    reference energy to select bands
   IMIX   =      4    mixing-type and parameters
     AMIX     =   0.40;   BMIX     =  1.00
     AMIX_MAG =   1.60;   BMIX_MAG =  1.00
     AMIN     =   0.10
     WC   =   100.;   INIMIX=   1;  MIXPRE=   1;  MAXMIX= -45

 Intra band minimization:
   WEIMIN = 0.0000     energy-eigenvalue tresh-hold
   EBREAK =  0.13E-06  absolut break condition
   DEPER  =   0.30     relativ break condition  

   TIME   =   0.40     timestep for ELM

  volume/ion in A,a.u.               =      45.56       307.43
  Fermi-wavevector in a.u.,A,eV,Ry     =   0.871908  1.647667 10.343466  0.760223
  Thomas-Fermi vector in A             =   1.991082
 
 Write flags
   LWAVE        =      T    write WAVECAR
   LDOWNSAMPLE  =      F    k-point downsampling of WAVECAR
   LCHARG       =      T    write CHGCAR
   LVTOT        =      F    write LOCPOT, total local potential
   LVHAR        =      F    write LOCPOT, Hartree potential only
   LELF         =      F    write electronic localiz. function (ELF)
   LORBIT       =      0    0 simple, 1 ext, 2 COOP (PROOUT), +10 PAW based schemes


 Dipole corrections
   LMONO  =      F    monopole corrections only (constant potential shift)
   LDIPOL =      F    correct potential (dipole corrections)
   IDIPOL =      0    1-x, 2-y, 3-z, 4-all directions 
   EPSILON=  1.0000000 bulk dielectric constant

 Exchange correlation treatment:
   GGA     =    --    GGA type
   LEXCH   =     8    internal setting for exchange type
   LIBXC   =     F    Libxc                    
   VOSKOWN =     0    Vosko Wilk Nusair interpolation
   EXXOEP  =     0    0=HF, 1=EXX-LHF (local Hartree Fock) 2=EXX OEP
   LHFCALC =     T    Hartree Fock is set to
   LSYMGRAD=     F    symmetrize gradient (conserves proper symmetry)
   PRECFOCK=normal    Normal, Fast or Accurate (Low or Medium for compatibility)
   LRHFCALC=     F    long range Hartree Fock
   LRSCOR  =     F    long range correlation only (use DFT for short range part)
   LTHOMAS =     F    Thomas Fermi screening in HF
   LMODELHF=     F    short range full HF, long range fraction AEXX
   LFOCKACE=     T    use Adeptively-Compressed-Exchange operator
   ENCUT4O =  -1.0   cutoff for four orbital integrals eV
   LMAXFOCK=     4    L truncation for augmentation on plane wave grid
   LMAXFOCKAE=  -1    L truncation for all-electron charge restoration on plane wave grid
   NMAXFOCKAE=   1    number of basis functions for all-electron charge restoration
   LFOCKAEDFT=     F  apply the AE augmentation even for DFT
   NKREDX  =     1    reduce k-point grid by
   NKREDY  =     1    reduce k-point grid by
   NKREDZ  =     1    reduce k-point grid by
   SHIFTRED=     F    shift reduced grid of Gamma
   HFKIDENT=     F    idential grid for each k-point
   ODDONLY =     F    use only odd q-grid points
   EVENONLY=     F    use only even q-grid points
   HFALPHA =   -1.0000 decay constant for conv. correction
   MCALPHA =    0.0000 extent of test-charge in conv. correction in multipole expansion
   AEXX    =    1.0000 exact exchange contribution
   HFSCREEN=    0.0000 screening length (either q_TF or 0.3 A-1)
   HFSCREENC=   0.0000 screening length for correlation (either q_TF or 0.3 A-1)
   HFRCUT  =    0.0000 spherical cutoff for potential kernel
   HFRCUTSOFT=    0.0000 smooth spherical cutoff for potential kernel
   ERFCRAY_SCREEN=    0.0000 screening factor for erfc+rayleigh like screening for potential kernel
   RAYLEXP=    0.0000  rayleigh exponent in erfc+rayleigh like screening
   ALDAX   =    0.0000 LDA exchange part
   AGGAX   =    0.0000 GGA exchange part
   ALDAC   =    0.0000 LDA correlation
   AGGAC   =    0.0000 GGA correlation
   ENCUTFOCK=  -1.0 apply spherical cutoff to Coloumb kernel
   NBANDSGWLOW=     1    first orbital included in HF term
   NBLOCK_FOCK=    64    blocking factor in FOCK_ACC

 Linear response parameters
   LEPSILON=     F    determine dielectric tensor
   LRPA    =     F    only Hartree local field effects (RPA)
   LNABLA  =     F    use nabla operator in PAW spheres
   LVEL    =     F    velocity operator in full k-point grid
   CSHIFT  =0.1000    complex shift for real part using Kramers Kronig
   OMEGAMAX=  -1.0    maximum frequency
   DEG_THRESHOLD= 0.2000000E-02 threshold for treating states as degnerate
   RTIME   =   -0.100 relaxation time in fs
  (WPLASMAI=    0.000 imaginary part of plasma frequency in eV, 0.658/RTIME)
   DFIELD  = 0.0000000 0.0000000 0.0000000 field for delta impulse in time
 
  Optional k-point grid parameters
   LKPOINTS_OPT  =     F    use optional k-point grid
   KPOINTS_OPT_MODE=     1    mode for optional k-point grid
 
 Orbital magnetization related:
   ORBITALMAG=     F  switch on orbital magnetization
   LCHIMAG   =     F  perturbation theory with respect to B field
   DQ        =  0.001000  dq finite difference perturbation B field
   LLRAUG    =     F  two centre corrections for induced B field



--------------------------------------------------------------------------------------------------------


 Static calculation
 charge density and potential will be updated during run
 non-spin polarized calculation
 Conjugate gradient for all bands (Freysoldt, et al. PRB 79, 241103 (2009))
 preconditioned conjugated gradient                                        
 perform sub-space diagonalisation
    before iterative eigenvector-optimisation
 modified Broyden-mixing scheme, WC =      100.0
 initial mixing is a Kerker type mixing with AMIX =  0.4000 and BMIX =      1.0000
 Hartree-type preconditioning will be used
 using additional bands           75
 reciprocal scheme for non local part
 use partial core corrections
 no Harris-corrections to forces 
 use gradient corrections 
 use of overlap-Matrix (Vanderbilt PP)
 Methfessel and Paxton  Order N= 1 SIGMA  =   0.00


--------------------------------------------------------------------------------------------------------


  energy-cutoff  :      500.00
  volume of cell :     1548.92
      direct lattice vectors                 reciprocal lattice vectors
     8.440984654  0.000000000  0.000000000     0.118469591  0.000000000  0.000000000
     0.000000000  8.440984654  0.000000000     0.000000000  0.118469591  0.000000000
     0.000000000  0.000000000 21.739138756     0.000000000  0.000000000  0.045999982

  length of vectors
     8.440984654  8.440984654 21.739138756     0.118469591  0.118469591  0.045999982


 
 old parameters found on file WAVECAR:
  energy-cutoff  :      500.00
  volume of cell :     1548.92
      direct lattice vectors                 reciprocal lattice vectors
     8.440984654  0.000000000  0.000000000     0.118469591  0.000000000  0.000000000
     0.000000000  8.440984654  0.000000000     0.000000000  0.118469591  0.000000000
     0.000000000  0.000000000 21.739138756     0.000000000  0.000000000  0.045999982

  length of vectors

 
 k-points in units of 2pi/SCALE and weight: Automatically generated mesh            
   0.00000000  0.00000000  0.00000000       0.250
   0.05923480  0.00000000  0.00000000       0.500
   0.05923480  0.05923480  0.00000000       0.250
 
 k-points in reciprocal lattice and weights: Automatically generated mesh            
   0.00000000  0.00000000  0.00000000       0.250
   0.50000000  0.00000000  0.00000000       0.500
   0.50000000  0.50000000  0.00000000       0.250
 
 position of ions in fractional coordinates (direct lattice) 
   0.50000000  0.50000000  0.57924645
   0.00000000  0.74993927  0.36831441
   0.25006073  0.00000000  0.36831441
   0.00000000  0.00000000  0.46512297
   0.24985833  0.75014167  0.46495051
   0.00000000  0.25006073  0.36831441
   0.25037838  0.50000000  0.36844813
   0.00000000  0.50000000  0.46499539
   0.24985833  0.24985833  0.46495051
   0.50000000  0.74962162  0.36844813
   0.74993927  0.00000000  0.36831441
   0.50000000  0.00000000  0.46499539
   0.75014167  0.75014167  0.46495051
   0.50000000  0.25037838  0.36844813
   0.74962162  0.50000000  0.36844813
   0.50000000  0.50000000  0.46695946
   0.75014167  0.24985833  0.46495051
   0.00000000  0.75021853  0.46731495
   0.24978147  0.00000000  0.46731495
   0.00000000  0.00000000  0.36804620
   0.24994577  0.75005423  0.36809449
   0.00000000  0.24978147  0.46731495
   0.24882271  0.50000000  0.46722038
   0.00000000  0.50000000  0.36799986
   0.24994577  0.24994577  0.36809449
   0.50000000  0.75117729  0.46722038
   0.75021853  0.00000000  0.46731495
   0.50000000  0.00000000  0.36799986
   0.75005423  0.75005423  0.36809449
   0.50000000  0.24882271  0.46722038
   0.75117729  0.50000000  0.46722038
   0.50000000  0.50000000  0.36845975
   0.75005423  0.24994577  0.36809449
   0.50000000  0.50000000  0.63200014
 
 position of ions in cartesian coordinates  (Angst):
   4.22049233  4.22049233 12.59231894
   0.00000000  6.33022585  8.00683807
   2.11075880  0.00000000  8.00683807
   0.00000000  0.00000000 10.11137288
   2.10905031  6.33193435 10.10762375
   0.00000000  2.11075880  8.00683807
   2.11344006  4.22049233  8.00974512
   0.00000000  4.22049233 10.10859928
   2.10905031  2.10905031 10.10762375
   4.22049233  6.32754460  8.00974512
   6.33022585  0.00000000  8.00683807
   4.22049233  0.00000000 10.10859928
   6.33193435  6.33193435 10.10762375
   4.22049233  2.11344006  8.00974512
   6.32754460  4.22049233  8.00974512
   4.22049233  4.22049233 10.15129658
   6.33193435  2.10905031 10.10762375
   0.00000000  6.33258312 10.15902460
   2.10840153  0.00000000 10.15902460
   0.00000000  0.00000000  8.00100734
   2.10978841  6.33119624  8.00205730
   0.00000000  2.10840153 10.15902460
   2.10030867  4.22049233 10.15696867
   0.00000000  4.22049233  8.00000000
   2.10978841  2.10978841  8.00205730
   4.22049233  6.34067598 10.15696867
   6.33258312  0.00000000 10.15902460
   4.22049233  0.00000000  8.00000000
   6.33119624  6.33119624  8.00205730
   4.22049233  2.10030867 10.15696867
   6.34067598  4.22049233 10.15696867
   4.22049233  4.22049233  8.00999753
   6.33119624  2.10978841  8.00205730
   4.22049233  4.22049233 13.73913876
 


--------------------------------------------------------------------------------------------------------


 k-point   1 :   0.0000 0.0000 0.0000  plane waves:   39459
 k-point   2 :   0.5000 0.0000 0.0000  plane waves:   39346
 k-point   3 :   0.5000 0.5000 0.0000  plane waves:   39220

 maximum and minimum number of plane-waves per node :      9875     9782

 maximum number of plane-waves:     39459
 maximum index in each direction: 
   IXMAX=   15   IYMAX=   15   IZMAX=   39
   IXMIN=  -15   IYMIN=  -15   IZMIN=  -39


 parallel 3D FFT for wavefunctions:
    minimum data exchange during FFTs selected (reduces bandwidth)
 parallel 3D FFT for charge:
    minimum data exchange during FFTs selected (reduces bandwidth)

 
 Radii for the augmentation spheres in the non-local exchange
 for species   1 augmentation radius   0.874 (default was   0.699)
       energy cutoff for augmentation   2000.0
 for species   2 augmentation radius   1.037 (default was   0.829)
       energy cutoff for augmentation   2000.0
 for species   3 augmentation radius   0.846 (default was   0.677)
       energy cutoff for augmentation   2000.0

 real space projection operators:
  total allocation   :       4142.46 KBytes
  max/ min on nodes  :       1058.27        991.64

 Maximum index for augmentation-charges in exchange          221
  SETUP_FOCK is finished

 total amount of memory used by VASP MPI-rank0    65604. kBytes
=======================================================================

   base      :      30000. kBytes
   nonl-proj :      21041. kBytes
   fftplans  :       5105. kBytes
   grid      :       4257. kBytes
   one-center:        209. kBytes
   HF        :        290. kBytes
   nonlr-proj:       1801. kBytes
   wavefun   :       2901. kBytes
 
     INWAV:  cpu time      0.8918: real time      0.8992
 Broyden mixing: mesh for mixing (old mesh)
   NGX = 31   NGY = 31   NGZ = 79
  (NGX  = 96   NGY  = 96   NGZ  =240)
  gives a total of  75919 points

 charge density for first step will be calculated from the start-wavefunctions


--------------------------------------------------------------------------------------------------------


 Maximum index for augmentation-charges          274 (set IRDMAX)


--------------------------------------------------------------------------------------------------------


 initial charge from wavefunction
    FEWALD:  cpu time      0.0012: real time      0.0012


--------------------------------------- Iteration      1(   1)  ---------------------------------------


    POTLOK:  cpu time      0.0160: real time      0.0164
    SETDIJ:  cpu time      0.0114: real time      0.0117
    TRIAL :  cpu time     33.0143: real time     33.9851
    CORREC:  cpu time     32.6179: real time     33.5719
    CHARGE:  cpu time      0.0255: real time      0.0261
    --------------------------------------------
      LOOP:  cpu time     65.6882: real time     67.6143

 eigenvalue-minimisations  :     0
 total energy-change (2. order) :-0.2429599E+03  (-0.6909058E+02)
 number of electron     233.9999286 magnetization 
 augmentation part       76.7745715 magnetization 

 Free energy of the ion-electron system (eV)
  ---------------------------------------------------
  alpha Z        PSCENC =       200.63487369
  Ewald energy   TEWEN  =     64884.13705603
  -Hartree energ DENC   =    -83591.65336894
  -exchange      EXHF   =      3321.82845473
  -V(xc)+E(xc)   XCENC  =         0.00000000
  PAW double counting   =     21185.34149356   -22655.29586529
  entropy T*S    EENTRO =         0.00000000
  eigenvalues    EBANDS =     -7507.00482731
  atomic energy  EATOM  =     23919.05224044
  ---------------------------------------------------
  free energy    TOTEN  =      -242.95994309 eV

  energy without entropy =     -242.95994309  energy(sigma->0) =     -242.95994309
  exchange ACFDT corr.  =         0.00000000  see jH, gK, PRB 81, 115126


--------------------------------------------------------------------------------------------------------




--------------------------------------- Iteration      1(   2)  ---------------------------------------


    POTLOK:  cpu time      0.0151: real time      0.0152
    SETDIJ:  cpu time      0.0104: real time      0.0105
    TRIAL :  cpu time     32.8576: real time     33.8276
    CORREC:  cpu time     46.2938: real time     47.3272
    CHARGE:  cpu time      0.0254: real time      0.0260
    --------------------------------------------
      LOOP:  cpu time     79.2056: real time     81.2102

 eigenvalue-minimisations  :     0
 total energy-change (2. order) :-0.6876879E+02  (-0.4014378E+02)
 number of electron     233.9999292 magnetization 
 augmentation part       75.9640566 magnetization 

 Free energy of the ion-electron system (eV)
  ---------------------------------------------------
  alpha Z        PSCENC =       200.63487369
  Ewald energy   TEWEN  =     64884.13705603
  -Hartree energ DENC   =    -83467.37261069
  -exchange      EXHF   =      3322.54406766
  -V(xc)+E(xc)   XCENC  =         0.00000000
  PAW double counting   =     20769.51456820   -22241.60085268
  entropy T*S    EENTRO =         0.00000000
  eigenvalues    EBANDS =     -7698.63807699
  atomic energy  EATOM  =     23919.05224044
  ---------------------------------------------------
  free energy    TOTEN  =      -311.72873434 eV

  energy without entropy =     -311.72873434  energy(sigma->0) =     -311.72873434
  exchange ACFDT corr.  =         0.00000000  see jH, gK, PRB 81, 115126


--------------------------------------------------------------------------------------------------------




--------------------------------------- Iteration      1(   3)  ---------------------------------------


    POTLOK:  cpu time      0.0154: real time      0.0155
    SETDIJ:  cpu time      0.0104: real time      0.0105
    TRIAL :  cpu time     43.3294: real time     44.3447
    CORREC:  cpu time     38.8110: real time     39.8070
    CHARGE:  cpu time      0.0253: real time      0.0260
    --------------------------------------------
      LOOP:  cpu time     82.1924: real time     84.2051

 eigenvalue-minimisations  :     0
 total energy-change (2. order) :-0.3979684E+02  (-0.1015590E+02)
 number of electron     233.9999281 magnetization 
 augmentation part       77.1308347 magnetization 

 Free energy of the ion-electron system (eV)
  ---------------------------------------------------
  alpha Z        PSCENC =       200.63487369
  Ewald energy   TEWEN  =     64884.13705603
  -Hartree energ DENC   =    -83383.04974642
  -exchange      EXHF   =      3319.56230272
  -V(xc)+E(xc)   XCENC  =         0.00000000
  PAW double counting   =     20447.02946048   -21880.44665894
  entropy T*S    EENTRO =         0.00000000
  eigenvalues    EBANDS =     -7858.44510200
  atomic energy  EATOM  =     23919.05224044
  ---------------------------------------------------
  free energy    TOTEN  =      -351.52557399 eV

  energy without entropy =     -351.52557399  energy(sigma->0) =     -351.52557399
  exchange ACFDT corr.  =         0.00000000  see jH, gK, PRB 81, 115126


--------------------------------------------------------------------------------------------------------




--------------------------------------- Iteration      1(   4)  ---------------------------------------


    POTLOK:  cpu time      0.0150: real time      0.0151
    SETDIJ:  cpu time      0.0106: real time      0.0107
    TRIAL :  cpu time     32.7459: real time     33.7080
    CORREC:  cpu time     32.5632: real time     33.5195
    CHARGE:  cpu time      0.0255: real time      0.0261
    --------------------------------------------
      LOOP:  cpu time     65.3610: real time     67.2843

 eigenvalue-minimisations  :     0
 total energy-change (2. order) :-0.9997668E+01  (-0.5128482E+01)
 number of electron     233.9999279 magnetization 
 augmentation part       76.1798703 magnetization 

 Free energy of the ion-electron system (eV)
  ---------------------------------------------------
  alpha Z        PSCENC =       200.63487369
  Ewald energy   TEWEN  =     64884.13705603
  -Hartree energ DENC   =    -83511.26194520
  -exchange      EXHF   =      3334.11508102
  -V(xc)+E(xc)   XCENC  =         0.00000000
  PAW double counting   =     20365.76514355   -21846.78286216
  entropy T*S    EENTRO =         0.00000000
  eigenvalues    EBANDS =     -7707.18282935
  atomic energy  EATOM  =     23919.05224044
  ---------------------------------------------------
  free energy    TOTEN  =      -361.52324197 eV

  energy without entropy =     -361.52324197  energy(sigma->0) =     -361.52324197
  exchange ACFDT corr.  =         0.00000000  see jH, gK, PRB 81, 115126


--------------------------------------------------------------------------------------------------------




--------------------------------------- Iteration      1(   5)  ---------------------------------------


    POTLOK:  cpu time      0.1737: real time      0.1745
    SETDIJ:  cpu time      0.0105: real time      0.0109
    TRIAL :  cpu time     33.0979: real time     34.0617
    CORREC:  cpu time     44.9053: real time     45.9236
    CHARGE:  cpu time      0.0338: real time      0.0344
    --------------------------------------------
      LOOP:  cpu time     78.2219: real time     80.2066

 eigenvalue-minimisations  :     0
 total energy-change (2. order) :-0.5080306E+01  (-0.2563128E+01)
 number of electron     233.9999276 magnetization 
 augmentation part       76.8056840 magnetization 

 Free energy of the ion-electron system (eV)
  ---------------------------------------------------
  alpha Z        PSCENC =       200.63487369
  Ewald energy   TEWEN  =     64884.13705603
  -Hartree energ DENC   =    -83549.98781740
  -exchange      EXHF   =      3335.65392735
  -V(xc)+E(xc)   XCENC  =         0.00000000
  PAW double counting   =     20223.91839703   -21657.07064483
  entropy T*S    EENTRO =         0.00000000
  eigenvalues    EBANDS =     -7722.94158051
  atomic energy  EATOM  =     23919.05224044
  ---------------------------------------------------
  free energy    TOTEN  =      -366.60354821 eV

  energy without entropy =     -366.60354821  energy(sigma->0) =     -366.60354821
  exchange ACFDT corr.  =         0.00000000  see jH, gK, PRB 81, 115126


--------------------------------------------------------------------------------------------------------




--------------------------------------- Iteration      1(   6)  ---------------------------------------


    POTLOK:  cpu time      0.0149: real time      0.0150
    SETDIJ:  cpu time      0.0103: real time      0.0104
    TRIAL :  cpu time     46.0975: real time     47.1291
    CORREC:  cpu time     32.4685: real time     33.4409
    CHARGE:  cpu time      0.0254: real time      0.0261
    --------------------------------------------
      LOOP:  cpu time     78.6182: real time     80.6232

 eigenvalue-minimisations  :     0
 total energy-change (2. order) :-0.2543210E+01  (-0.1607171E+01)
 number of electron     233.9999280 magnetization 
 augmentation part       76.5495110 magnetization 

 Free energy of the ion-electron system (eV)
  ---------------------------------------------------
  alpha Z        PSCENC =       200.63487369
  Ewald energy   TEWEN  =     64884.13705603
  -Hartree energ DENC   =    -83610.29878008
  -exchange      EXHF   =      3342.62834064
  -V(xc)+E(xc)   XCENC  =         0.00000000
  PAW double counting   =     20239.38824350   -21701.74024126
  entropy T*S    EENTRO =         0.00000000
  eigenvalues    EBANDS =     -7642.94849083
  atomic energy  EATOM  =     23919.05224044
  ---------------------------------------------------
  free energy    TOTEN  =      -369.14675787 eV

  energy without entropy =     -369.14675787  energy(sigma->0) =     -369.14675787
  exchange ACFDT corr.  =         0.00000000  see jH, gK, PRB 81, 115126


--------------------------------------------------------------------------------------------------------




--------------------------------------- Iteration      1(   7)  ---------------------------------------


    POTLOK:  cpu time      0.0152: real time      0.0153
    SETDIJ:  cpu time      0.0103: real time      0.0104
    TRIAL :  cpu time     32.7782: real time     33.7507
    CORREC:  cpu time     34.9313: real time     35.9095
    CHARGE:  cpu time      0.0256: real time      0.0263
    --------------------------------------------
      LOOP:  cpu time     67.7616: real time     69.7137

 eigenvalue-minimisations  :     0
 total energy-change (2. order) :-0.1599955E+01  (-0.9795708E+00)
 number of electron     233.9999279 magnetization 
 augmentation part       76.4372172 magnetization 

 Free energy of the ion-electron system (eV)
  ---------------------------------------------------
  alpha Z        PSCENC =       200.63487369
  Ewald energy   TEWEN  =     64884.13705603
  -Hartree energ DENC   =    -83600.47126538
  -exchange      EXHF   =      3342.01538889
  -V(xc)+E(xc)   XCENC  =         0.00000000
  PAW double counting   =     20245.84448409   -21698.93562443
  entropy T*S    EENTRO =         0.00000000
  eigenvalues    EBANDS =     -7663.02386624
  atomic energy  EATOM  =     23919.05224044
  ---------------------------------------------------
  free energy    TOTEN  =      -370.74671290 eV

  energy without entropy =     -370.74671290  energy(sigma->0) =     -370.74671290
  exchange ACFDT corr.  =         0.00000000  see jH, gK, PRB 81, 115126


--------------------------------------------------------------------------------------------------------




--------------------------------------- Iteration      1(   8)  ---------------------------------------


    POTLOK:  cpu time      0.0151: real time      0.0152
    SETDIJ:  cpu time      0.0103: real time      0.0106
    TRIAL :  cpu time     40.0375: real time     41.0529
    CORREC:  cpu time     42.1223: real time     43.1377
    CHARGE:  cpu time      0.0257: real time      0.0264
    --------------------------------------------
      LOOP:  cpu time     82.2123: real time     84.2446

 eigenvalue-minimisations  :     0
 total energy-change (2. order) :-0.9750392E+00  (-0.6014896E+00)
 number of electron     233.9999279 magnetization 
 augmentation part       76.5996028 magnetization 

 Free energy of the ion-electron system (eV)
  ---------------------------------------------------
  alpha Z        PSCENC =       200.63487369
  Ewald energy   TEWEN  =     64884.13705603
  -Hartree energ DENC   =    -83586.92146617
  -exchange      EXHF   =      3340.90822862
  -V(xc)+E(xc)   XCENC  =         0.00000000
  PAW double counting   =     20250.24892634   -21700.05267250
  entropy T*S    EENTRO =         0.00000000
  eigenvalues    EBANDS =     -7679.72893853
  atomic energy  EATOM  =     23919.05224044
  ---------------------------------------------------
  free energy    TOTEN  =      -371.72175208 eV

  energy without entropy =     -371.72175208  energy(sigma->0) =     -371.72175208
  exchange ACFDT corr.  =         0.00000000  see jH, gK, PRB 81, 115126


--------------------------------------------------------------------------------------------------------




--------------------------------------- Iteration      1(   9)  ---------------------------------------


    POTLOK:  cpu time      0.0150: real time      0.0151
    SETDIJ:  cpu time      0.0104: real time      0.0105
    TRIAL :  cpu time     32.7861: real time     33.7581
    CORREC:  cpu time     32.5513: real time     33.5211
    CHARGE:  cpu time      0.0250: real time      0.0258
    --------------------------------------------
      LOOP:  cpu time     65.3886: real time     67.3320

 eigenvalue-minimisations  :     0
 total energy-change (2. order) :-0.5987642E+00  (-0.4000568E+00)
 number of electron     233.9999280 magnetization 
 augmentation part       76.4695884 magnetization 

 Free energy of the ion-electron system (eV)
  ---------------------------------------------------
  alpha Z        PSCENC =       200.63487369
  Ewald energy   TEWEN  =     64884.13705603
  -Hartree energ DENC   =    -83588.46496170
  -exchange      EXHF   =      3341.34544623
  -V(xc)+E(xc)   XCENC  =         0.00000000
  PAW double counting   =     20245.05978230   -21702.18372857
  entropy T*S    EENTRO =         0.00000000
  eigenvalues    EBANDS =     -7671.90122475
  atomic energy  EATOM  =     23919.05224044
  ---------------------------------------------------
  free energy    TOTEN  =      -372.32051632 eV

  energy without entropy =     -372.32051632  energy(sigma->0) =     -372.32051632
  exchange ACFDT corr.  =         0.00000000  see jH, gK, PRB 81, 115126


--------------------------------------------------------------------------------------------------------




--------------------------------------- Iteration      1(  10)  ---------------------------------------


    POTLOK:  cpu time      0.0147: real time      0.0148
    SETDIJ:  cpu time      0.0105: real time      0.0106
    TRIAL :  cpu time     39.3633: real time     40.3724
    CORREC:  cpu time     46.3366: real time     47.3705
    CHARGE:  cpu time      0.0251: real time      0.0258
    --------------------------------------------
      LOOP:  cpu time     85.7511: real time     87.7957

 eigenvalue-minimisations  :     0
 total energy-change (2. order) :-0.3989955E+00  (-0.2430092E+00)
 number of electron     233.9999278 magnetization 
 augmentation part       76.5793295 magnetization 

 Free energy of the ion-electron system (eV)
  ---------------------------------------------------
  alpha Z        PSCENC =       200.63487369
  Ewald energy   TEWEN  =     64884.13705603
  -Hartree energ DENC   =    -83582.00968024
  -exchange      EXHF   =      3340.27869653
  -V(xc)+E(xc)   XCENC  =         0.00000000
  PAW double counting   =     20221.23088735   -21671.32829899
  entropy T*S    EENTRO =         0.00000000
  eigenvalues    EBANDS =     -7684.71528665
  atomic energy  EATOM  =     23919.05224044
  ---------------------------------------------------
  free energy    TOTEN  =      -372.71951183 eV

  energy without entropy =     -372.71951183  energy(sigma->0) =     -372.71951183
  exchange ACFDT corr.  =         0.00000000  see jH, gK, PRB 81, 115126


--------------------------------------------------------------------------------------------------------




--------------------------------------- Iteration      1(  11)  ---------------------------------------


    POTLOK:  cpu time      0.0146: real time      0.0147
    SETDIJ:  cpu time      0.0106: real time      0.0107
    TRIAL :  cpu time     40.9970: real time     42.0083
    CORREC:  cpu time     32.5289: real time     33.4954
    CHARGE:  cpu time      0.0299: real time      0.0306
    --------------------------------------------
      LOOP:  cpu time     73.5819: real time     75.5612

 eigenvalue-minimisations  :     0
 total energy-change (2. order) :-0.2419371E+00  (-0.1287892E+00)
 number of electron     233.9999279 magnetization 
 augmentation part       76.5076714 magnetization 

 Free energy of the ion-electron system (eV)
  ---------------------------------------------------
  alpha Z        PSCENC =       200.63487369
  Ewald energy   TEWEN  =     64884.13705603
  -Hartree energ DENC   =    -83584.99952858
  -exchange      EXHF   =      3340.28990548
  -V(xc)+E(xc)   XCENC  =         0.00000000
  PAW double counting   =     20222.18221244   -21677.34267806
  entropy T*S    EENTRO =         0.00000000
  eigenvalues    EBANDS =     -7676.91553042
  atomic energy  EATOM  =     23919.05224044
  ---------------------------------------------------
  free energy    TOTEN  =      -372.96144897 eV

  energy without entropy =     -372.96144897  energy(sigma->0) =     -372.96144897
  exchange ACFDT corr.  =         0.00000000  see jH, gK, PRB 81, 115126


--------------------------------------------------------------------------------------------------------




--------------------------------------- Iteration      1(  12)  ---------------------------------------


    POTLOK:  cpu time      0.0152: real time      0.0153
    SETDIJ:  cpu time      0.0103: real time      0.0104
    TRIAL :  cpu time     32.7484: real time     33.7192
    CORREC:  cpu time     35.3903: real time     36.3732
    CHARGE:  cpu time      0.0259: real time      0.0266
    --------------------------------------------
      LOOP:  cpu time     68.1910: real time     70.1461

 eigenvalue-minimisations  :     0
 total energy-change (2. order) :-0.1282563E+00  (-0.6002728E-01)
 number of electron     233.9999280 magnetization 
 augmentation part       76.4865920 magnetization 

 Free energy of the ion-electron system (eV)
  ---------------------------------------------------
  alpha Z        PSCENC =       200.63487369
  Ewald energy   TEWEN  =     64884.13705603
  -Hartree energ DENC   =    -83578.66507578
  -exchange      EXHF   =      3339.24975315
  -V(xc)+E(xc)   XCENC  =         0.00000000
  PAW double counting   =     20224.52232929   -21677.32194322
  entropy T*S    EENTRO =         0.00000000
  eigenvalues    EBANDS =     -7684.69893891
  atomic energy  EATOM  =     23919.05224044
  ---------------------------------------------------
  free energy    TOTEN  =      -373.08970531 eV

  energy without entropy =     -373.08970531  energy(sigma->0) =     -373.08970531
  exchange ACFDT corr.  =         0.00000000  see jH, gK, PRB 81, 115126


--------------------------------------------------------------------------------------------------------




--------------------------------------- Iteration      1(  13)  ---------------------------------------


    POTLOK:  cpu time      0.1943: real time      0.1955
    SETDIJ:  cpu time      0.0108: real time      0.0109
    TRIAL :  cpu time     42.5176: real time     43.5378
    CORREC:  cpu time     41.1059: real time     42.1184
    CHARGE:  cpu time      0.0258: real time      0.0264
    --------------------------------------------
      LOOP:  cpu time     83.8552: real time     85.8905

 eigenvalue-minimisations  :     0
 total energy-change (2. order) :-0.5967964E-01  (-0.2856870E-01)
 number of electron     233.9999280 magnetization 
 augmentation part       76.5377852 magnetization 

 Free energy of the ion-electron system (eV)
  ---------------------------------------------------
  alpha Z        PSCENC =       200.63487369
  Ewald energy   TEWEN  =     64884.13705603
  -Hartree energ DENC   =    -83575.34764580
  -exchange      EXHF   =      3338.99802959
  -V(xc)+E(xc)   XCENC  =         0.00000000
  PAW double counting   =     20227.82089465   -21680.15057577
  entropy T*S    EENTRO =         0.00000000
  eigenvalues    EBANDS =     -7688.29425779
  atomic energy  EATOM  =     23919.05224044
  ---------------------------------------------------
  free energy    TOTEN  =      -373.14938495 eV

  energy without entropy =     -373.14938495  energy(sigma->0) =     -373.14938495
  exchange ACFDT corr.  =         0.00000000  see jH, gK, PRB 81, 115126


--------------------------------------------------------------------------------------------------------




--------------------------------------- Iteration      1(  14)  ---------------------------------------


    POTLOK:  cpu time      0.0146: real time      0.0147
    SETDIJ:  cpu time      0.0104: real time      0.0105
    TRIAL :  cpu time     32.7590: real time     33.7298
    CORREC:  cpu time     32.6240: real time     33.5774
    CHARGE:  cpu time      0.0295: real time      0.0302
    --------------------------------------------
      LOOP:  cpu time     65.4389: real time     67.3641

 eigenvalue-minimisations  :     0
 total energy-change (2. order) :-0.2837623E-01  (-0.1530943E-01)
 number of electron     233.9999280 magnetization 
 augmentation part       76.5068320 magnetization 

 Free energy of the ion-electron system (eV)
  ---------------------------------------------------
  alpha Z        PSCENC =       200.63487369
  Ewald energy   TEWEN  =     64884.13705603
  -Hartree energ DENC   =    -83576.59756952
  -exchange      EXHF   =      3339.47834807
  -V(xc)+E(xc)   XCENC  =         0.00000000
  PAW double counting   =     20230.79133407   -21685.38769997
  entropy T*S    EENTRO =         0.00000000
  eigenvalues    EBANDS =     -7685.28634400
  atomic energy  EATOM  =     23919.05224044
  ---------------------------------------------------
  free energy    TOTEN  =      -373.17776118 eV

  energy without entropy =     -373.17776118  energy(sigma->0) =     -373.17776118
  exchange ACFDT corr.  =         0.00000000  see jH, gK, PRB 81, 115126


--------------------------------------------------------------------------------------------------------




--------------------------------------- Iteration      1(  15)  ---------------------------------------


    POTLOK:  cpu time      0.0150: real time      0.0151
    SETDIJ:  cpu time      0.0103: real time      0.0104
    TRIAL :  cpu time     34.8458: real time     35.8195
    CORREC:  cpu time     55.8867: real time     56.9744
    CHARGE:  cpu time      0.0251: real time      0.0261
    --------------------------------------------
      LOOP:  cpu time     90.7837: real time     92.8469

 eigenvalue-minimisations  :     0
 total energy-change (2. order) :-0.1518993E-01  (-0.8889816E-02)
 number of electron     233.9999280 magnetization 
 augmentation part       76.5027219 magnetization 

 Free energy of the ion-electron system (eV)
  ---------------------------------------------------
  alpha Z        PSCENC =       200.63487369
  Ewald energy   TEWEN  =     64884.13705603
  -Hartree energ DENC   =    -83574.95108760
  -exchange      EXHF   =      3339.45816880
  -V(xc)+E(xc)   XCENC  =         0.00000000
  PAW double counting   =     20228.32875804   -21681.33929254
  entropy T*S    EENTRO =         0.00000000
  eigenvalues    EBANDS =     -7688.51366798
  atomic energy  EATOM  =     23919.05224044
  ---------------------------------------------------
  free energy    TOTEN  =      -373.19295111 eV

  energy without entropy =     -373.19295111  energy(sigma->0) =     -373.19295111
  exchange ACFDT corr.  =         0.00000000  see jH, gK, PRB 81, 115126


--------------------------------------------------------------------------------------------------------




--------------------------------------- Iteration      1(  16)  ---------------------------------------


    POTLOK:  cpu time      0.0156: real time      0.0157
    SETDIJ:  cpu time      0.0103: real time      0.0104
    TRIAL :  cpu time     42.1236: real time     43.1364
    CORREC:  cpu time     35.9977: real time     36.9788
    CHARGE:  cpu time      0.0251: real time      0.0257
    --------------------------------------------
      LOOP:  cpu time     78.1782: real time     80.1736

 eigenvalue-minimisations  :     0
 total energy-change (2. order) :-0.8851353E-02  (-0.5447000E-02)
 number of electron     233.9999280 magnetization 
 augmentation part       76.5213380 magnetization 

 Free energy of the ion-electron system (eV)
  ---------------------------------------------------
  alpha Z        PSCENC =       200.63487369
  Ewald energy   TEWEN  =     64884.13705603
  -Hartree energ DENC   =    -83574.33138823
  -exchange      EXHF   =      3339.44189053
  -V(xc)+E(xc)   XCENC  =         0.00000000
  PAW double counting   =     20227.70925325   -21680.52880247
  entropy T*S    EENTRO =         0.00000000
  eigenvalues    EBANDS =     -7689.31692571
  atomic energy  EATOM  =     23919.05224044
  ---------------------------------------------------
  free energy    TOTEN  =      -373.20180247 eV

  energy without entropy =     -373.20180247  energy(sigma->0) =     -373.20180247
  exchange ACFDT corr.  =         0.00000000  see jH, gK, PRB 81, 115126


--------------------------------------------------------------------------------------------------------




--------------------------------------- Iteration      1(  17)  ---------------------------------------


    POTLOK:  cpu time      0.0153: real time      0.0154
    SETDIJ:  cpu time      0.0104: real time      0.0105
    TRIAL :  cpu time     32.6834: real time     33.6514
    CORREC:  cpu time     33.3042: real time     34.2676
    CHARGE:  cpu time      0.0255: real time      0.0261
    --------------------------------------------
      LOOP:  cpu time     66.0394: real time     67.9723

 eigenvalue-minimisations  :     0
 total energy-change (2. order) :-0.5422010E-02  (-0.3520956E-02)
 number of electron     233.9999280 magnetization 
 augmentation part       76.5096745 magnetization 

 Free energy of the ion-electron system (eV)
  ---------------------------------------------------
  alpha Z        PSCENC =       200.63487369
  Ewald energy   TEWEN  =     64884.13705603
  -Hartree energ DENC   =    -83574.63789641
  -exchange      EXHF   =      3339.47525078
  -V(xc)+E(xc)   XCENC  =         0.00000000
  PAW double counting   =     20229.05446073   -21682.81035532
  entropy T*S    EENTRO =         0.00000000
  eigenvalues    EBANDS =     -7688.11285443
  atomic energy  EATOM  =     23919.05224044
  ---------------------------------------------------
  free energy    TOTEN  =      -373.20722448 eV

  energy without entropy =     -373.20722448  energy(sigma->0) =     -373.20722448
  exchange ACFDT corr.  =         0.00000000  see jH, gK, PRB 81, 115126


--------------------------------------------------------------------------------------------------------




--------------------------------------- Iteration      1(  18)  ---------------------------------------


    POTLOK:  cpu time      0.0146: real time      0.0147
    SETDIJ:  cpu time      0.0103: real time      0.0104
    TRIAL :  cpu time     32.8073: real time     33.7718
    CORREC:  cpu time     32.6088: real time     33.5672
    CHARGE:  cpu time      0.0256: real time      0.0262
    --------------------------------------------
      LOOP:  cpu time     65.4676: real time     67.3916

 eigenvalue-minimisations  :     0
 total energy-change (2. order) :-0.3504206E-02  (-0.2296910E-02)
 number of electron     233.9999280 magnetization 
 augmentation part       76.5088428 magnetization 

 Free energy of the ion-electron system (eV)
  ---------------------------------------------------
  alpha Z        PSCENC =       200.63487369
  Ewald energy   TEWEN  =     64884.13705603
  -Hartree energ DENC   =    -83573.95920586
  -exchange      EXHF   =      3339.35957181
  -V(xc)+E(xc)   XCENC  =         0.00000000
  PAW double counting   =     20228.60460468   -21681.83614989
  entropy T*S    EENTRO =         0.00000000
  eigenvalues    EBANDS =     -7689.20371958
  atomic energy  EATOM  =     23919.05224044
  ---------------------------------------------------
  free energy    TOTEN  =      -373.21072868 eV

  energy without entropy =     -373.21072868  energy(sigma->0) =     -373.21072868
  exchange ACFDT corr.  =         0.00000000  see jH, gK, PRB 81, 115126


--------------------------------------------------------------------------------------------------------




--------------------------------------- Iteration      1(  19)  ---------------------------------------


    POTLOK:  cpu time      0.0205: real time      0.0206
    SETDIJ:  cpu time      0.1636: real time      0.1646
    TRIAL :  cpu time     32.9090: real time     33.8710
    CORREC:  cpu time     32.5353: real time     33.4897
    CHARGE:  cpu time      0.0490: real time      0.0497
    --------------------------------------------
      LOOP:  cpu time     65.6781: real time     67.5970

 eigenvalue-minimisations  :     0
 total energy-change (2. order) :-0.2281236E-02  (-0.1570860E-02)
 number of electron     233.9999280 magnetization 
 augmentation part       76.5166678 magnetization 

 Free energy of the ion-electron system (eV)
  ---------------------------------------------------
  alpha Z        PSCENC =       200.63487369
  Ewald energy   TEWEN  =     64884.13705603
  -Hartree energ DENC   =    -83573.97421055
  -exchange      EXHF   =      3339.33905909
  -V(xc)+E(xc)   XCENC  =         0.00000000
  PAW double counting   =     20228.08623069   -21681.23862628
  entropy T*S    EENTRO =         0.00000000
  eigenvalues    EBANDS =     -7689.24963303
  atomic energy  EATOM  =     23919.05224044
  ---------------------------------------------------
  free energy    TOTEN  =      -373.21300992 eV

  energy without entropy =     -373.21300992  energy(sigma->0) =     -373.21300992
  exchange ACFDT corr.  =         0.00000000  see jH, gK, PRB 81, 115126


--------------------------------------------------------------------------------------------------------




--------------------------------------- Iteration      1(  20)  ---------------------------------------


    POTLOK:  cpu time      0.0149: real time      0.0154
    SETDIJ:  cpu time      0.0103: real time      0.0104
    TRIAL :  cpu time     32.7187: real time     33.6742
    CORREC:  cpu time     32.8895: real time     33.8488
    CHARGE:  cpu time      0.0254: real time      0.0263
    --------------------------------------------
      LOOP:  cpu time     65.7946: real time     67.7116

 eigenvalue-minimisations  :     0
 total energy-change (2. order) :-0.1559010E-02  (-0.1015621E-02)
 number of electron     233.9999280 magnetization 
 augmentation part       76.5138305 magnetization 

 Free energy of the ion-electron system (eV)
  ---------------------------------------------------
  alpha Z        PSCENC =       200.63487369
  Ewald energy   TEWEN  =     64884.13705603
  -Hartree energ DENC   =    -83574.42259773
  -exchange      EXHF   =      3339.39312683
  -V(xc)+E(xc)   XCENC  =         0.00000000
  PAW double counting   =     20228.10146257   -21681.56610512
  entropy T*S    EENTRO =         0.00000000
  eigenvalues    EBANDS =     -7688.54462563
  atomic energy  EATOM  =     23919.05224044
  ---------------------------------------------------
  free energy    TOTEN  =      -373.21456893 eV

  energy without entropy =     -373.21456893  energy(sigma->0) =     -373.21456893
  exchange ACFDT corr.  =         0.00000000  see jH, gK, PRB 81, 115126


--------------------------------------------------------------------------------------------------------




--------------------------------------- Iteration      1(  21)  ---------------------------------------


    POTLOK:  cpu time      0.0145: real time      0.0146
    SETDIJ:  cpu time      0.0104: real time      0.0105
    TRIAL :  cpu time     33.0789: real time     34.0399
    CORREC:  cpu time     32.5989: real time     33.5570
    CHARGE:  cpu time      0.0248: real time      0.0258
    --------------------------------------------
      LOOP:  cpu time     65.7288: real time     67.6493

 eigenvalue-minimisations  :     0
 total energy-change (2. order) :-0.1007317E-02  (-0.6214773E-03)
 number of electron     233.9999280 magnetization 
 augmentation part       76.5117177 magnetization 

 Free energy of the ion-electron system (eV)
  ---------------------------------------------------
  alpha Z        PSCENC =       200.63487369
  Ewald energy   TEWEN  =     64884.13705603
  -Hartree energ DENC   =    -83574.34658574
  -exchange      EXHF   =      3339.39282218
  -V(xc)+E(xc)   XCENC  =         0.00000000
  PAW double counting   =     20228.04341795   -21681.36288222
  entropy T*S    EENTRO =         0.00000000
  eigenvalues    EBANDS =     -7688.76651858
  atomic energy  EATOM  =     23919.05224044
  ---------------------------------------------------
  free energy    TOTEN  =      -373.21557625 eV

  energy without entropy =     -373.21557625  energy(sigma->0) =     -373.21557625
  exchange ACFDT corr.  =         0.00000000  see jH, gK, PRB 81, 115126


--------------------------------------------------------------------------------------------------------




--------------------------------------- Iteration      1(  22)  ---------------------------------------


    POTLOK:  cpu time      0.0146: real time      0.0147
    SETDIJ:  cpu time      0.0104: real time      0.0104
    TRIAL :  cpu time     33.1294: real time     34.0828
    CORREC:  cpu time     32.4778: real time     33.4280
    CHARGE:  cpu time      0.0253: real time      0.0259
    --------------------------------------------
      LOOP:  cpu time     65.6585: real time     67.5634

 eigenvalue-minimisations  :     0
 total energy-change (2. order) :-0.6159511E-03  (-0.3409899E-03)
 number of electron     233.9999280 magnetization 
 augmentation part       76.5133700 magnetization 

 Free energy of the ion-electron system (eV)
  ---------------------------------------------------
  alpha Z        PSCENC =       200.63487369
  Ewald energy   TEWEN  =     64884.13705603
  -Hartree energ DENC   =    -83574.27886019
  -exchange      EXHF   =      3339.38609188
  -V(xc)+E(xc)   XCENC  =         0.00000000
  PAW double counting   =     20228.15377988   -21681.40042405
  entropy T*S    EENTRO =         0.00000000
  eigenvalues    EBANDS =     -7688.90094988
  atomic energy  EATOM  =     23919.05224044
[...]
    131       4.6251      0.00000
    132       4.6296      0.00000
    133       4.6610      0.00000
    134       4.7006      0.00000
    135       4.7986      0.00000
    136       4.8099      0.00000
    137       5.0787      0.00000
    138       5.0945      0.00000
    139       5.2491      0.00000
    140       5.3016      0.00000
    141       5.4310      0.00000
    142       5.7210      0.00000
    143       5.7675      0.00000
    144       5.8591      0.00000
    145       5.9722      0.00000
    146       6.0444      0.00000
    147       6.1208      0.00000
    148       6.4283      0.00000
    149       6.4332      0.00000
    150       6.6107      0.00000
    151       6.6643      0.00000
    152       6.6883      0.00000
    153       6.7946      0.00000
    154       6.7961      0.00000
    155       6.8551      0.00000
    156       6.9171      0.00000
    157       6.9667      0.00000
    158       7.2508      0.00000
    159       7.4691      0.00000
    160       7.5470      0.00000
    161       7.6007      0.00000
    162       7.7542      0.00000
    163       7.8412      0.00000
    164       8.0325      0.00000
    165       8.3282      0.00000
    166       8.4140      0.00000
    167       8.4629      0.00000
    168       8.5238      0.00000
    169       8.5342      0.00000
    170       8.5850      0.00000
    171       8.6482      0.00000
    172       8.7988      0.00000
    173       8.8196      0.00000
    174       9.0325      0.00000
    175       9.1036      0.00000
    176       9.1741      0.00000
    177       9.2418      0.00000
    178       9.3261      0.00000
    179       9.3582      0.00000
    180       9.4937      0.00000
    181       9.4992      0.00000
    182       9.7901      0.00000
    183       9.9319      0.00000
    184      10.1047      0.00000
    185      10.1509      0.00000
    186      10.2789      0.00000
    187      10.3561      0.00000
    188      10.5176      0.00000
    189      10.7151      0.00000
    190      10.8169      0.00000
    191      11.0431      0.00000
    192      11.4596      0.00000

 k-point     3 :       0.5000    0.5000    0.0000
  band No.  band energies     occupation 
      1     -58.1487      2.00000
      2     -58.1471      2.00000
      3     -58.1470      2.00000
      4     -58.1449      2.00000
      5     -58.1345      2.00000
      6     -58.1323      2.00000
      7     -58.1323      2.00000
      8     -58.1306      2.00000
      9     -58.1109      2.00000
     10     -58.1107      2.00000
     11     -58.1100      2.00000
     12     -58.1100      2.00000
     13     -58.0937      2.00000
     14     -58.0936      2.00000
     15     -58.0902      2.00000
     16     -58.0890      2.00000
     17     -58.0857      2.00000
     18     -58.0855      2.00000
     19     -58.0815      2.00000
     20     -58.0815      2.00000
     21     -58.0650      2.00000
     22     -58.0650      2.00000
     23     -58.0647      2.00000
     24     -58.0636      2.00000
     25     -57.8740      2.00000
     26     -57.8739      2.00000
     27     -57.8738      2.00000
     28     -57.8736      2.00000
     29     -57.8440      2.00000
     30     -57.8263      2.00000
     31     -57.8263      2.00000
     32     -57.8241      2.00000
     33     -57.8241      2.00000
     34     -57.8238      2.00000
     35     -57.8238      2.00000
     36     -57.8180      2.00000
     37     -57.8180      2.00000
     38     -57.8168      2.00000
     39     -57.8168      2.00000
     40     -57.8117      2.00000
     41     -57.7836      2.00000
     42     -57.7836      2.00000
     43     -57.7682      2.00000
     44     -57.7680      2.00000
     45     -57.7611      2.00000
     46     -57.7609      2.00000
     47     -57.7590      2.00000
     48     -57.7590      2.00000
     49     -39.5549      2.00000
     50     -30.1564      2.00000
     51     -30.1534      2.00000
     52     -30.1534      2.00000
     53     -30.1428      2.00000
     54     -29.4519      2.00000
     55     -29.4470      2.00000
     56     -29.4470      2.00000
     57     -29.4402      2.00000
     58     -29.4233      2.00000
     59     -29.4232      2.00000
     60     -29.4232      2.00000
     61     -29.4122      2.00000
     62     -29.1670      2.00000
     63     -29.1552      2.00000
     64     -29.1552      2.00000
     65     -29.1519      2.00000
     66     -20.3310      2.00000
     67     -15.6479      2.00000
     68     -15.6479      2.00000
     69     -14.4583      2.00000
     70     -12.2730      2.00000
     71     -12.2714      2.00000
     72     -12.2695      2.00000
     73     -12.2695      2.00000
     74     -12.0696      2.00000
     75     -12.0696      2.00000
     76     -12.0645      2.00000
     77     -11.9868      2.00000
     78     -11.3592      2.00000
     79     -11.3592      2.00000
     80     -11.3510      2.00000
     81     -11.3105      2.00000
     82     -11.3004      2.00000
     83     -11.3004      2.00000
     84     -11.2882      2.00000
     85     -11.2266      2.00000
     86     -10.1626      2.00000
     87     -10.1598      2.00000
     88     -10.1598      2.00000
     89     -10.1543      2.00000
     90      -9.9050      2.00000
     91      -9.8996      2.00000
     92      -9.8996      2.00000
     93      -9.8954      2.00000
     94      -9.8762      2.00000
     95      -9.8762      2.00000
     96      -9.8690      2.00000
     97      -9.7376      2.00000
     98      -9.1738      2.00000
     99      -9.1697      2.00000
    100      -9.1696      2.00000
    101      -9.1321      2.00000
    102      -9.0197      2.00000
    103      -9.0122      2.00000
    104      -9.0122      2.00000
    105      -9.0084      2.00000
    106      -8.9577      2.00000
    107      -8.9305      2.00000
    108      -8.9305      2.00000
    109      -8.9153      2.00000
    110      -8.6903      2.00000
    111      -8.6903      2.00000
    112      -8.6693      2.00000
    113      -8.5993      2.00000
    114      -8.3462      2.00000
    115      -8.3438      2.00000
    116      -8.3437      2.00000
    117      -8.3379      2.00000
    118       2.7557      0.00000
    119       2.7590      0.00000
    120       2.7593      0.00000
    121       2.7716      0.00000
    122       3.0905      0.00000
    123       3.1174      0.00000
    124       3.1180      0.00000
    125       3.2320      0.00000
    126       3.5498      0.00000
    127       3.5680      0.00000
    128       3.5687      0.00000
    129       3.8807      0.00000
    130       4.2185      0.00000
    131       4.2187      0.00000
    132       4.2754      0.00000
    133       4.6563      0.00000
    134       4.7994      0.00000
    135       4.7995      0.00000
    136       5.0896      0.00000
    137       5.3634      0.00000
    138       5.5414      0.00000
    139       5.5415      0.00000
    140       6.2150      0.00000
    141       6.4014      0.00000
    142       6.4015      0.00000
    143       6.4644      0.00000
    144       6.8387      0.00000
    145       6.8414      0.00000
    146       6.8454      0.00000
    147       6.8476      0.00000
    148       6.9762      0.00000
    149       6.9860      0.00000
    150       7.0221      0.00000
    151       7.0308      0.00000
    152       7.1471      0.00000
    153       7.1798      0.00000
    154       7.2043      0.00000
    155       7.2308      0.00000
    156       7.2730      0.00000
    157       7.2968      0.00000
    158       7.3042      0.00000
    159       7.3634      0.00000
    160       7.3899      0.00000
    161       7.3942      0.00000
    162       7.4785      0.00000
    163       7.5947      0.00000
    164       7.5962      0.00000
    165       7.6305      0.00000
    166       7.6345      0.00000
    167       7.7612      0.00000
    168       7.8134      0.00000
    169       8.1241      0.00000
    170       8.2783      0.00000
    171       8.2999      0.00000
    172       8.5949      0.00000
    173       8.7800      0.00000
    174       8.7827      0.00000
    175       8.7869      0.00000
    176       8.8111      0.00000
    177       8.8825      0.00000
    178       8.8912      0.00000
    179       9.2078      0.00000
    180       9.2098      0.00000
    181       9.5380      0.00000
    182       9.7355      0.00000
    183       9.9326      0.00000
    184       9.9509      0.00000
    185       9.9534      0.00000
    186      10.2230      0.00000
    187      10.2767      0.00000
    188      10.3236      0.00000
    189      11.1964      0.00000
    190      11.3111      0.00000
    191      11.8012      0.00000
    192      12.1112      0.00000


--------------------------------------------------------------------------------------------------------


 soft charge-density along one line, spin component           1
         0         1         2         3         4         5         6         7         8         9
 total charge-density along one line
 
 pseudopotential strength for first ion, spin component:           1
  9.296 -14.257  -0.000   0.029   0.000  -0.000   0.141   0.000
-14.257  24.709   0.000  -0.036  -0.000   0.000  -0.257  -0.000
 -0.000   0.000  -3.656  -0.000   0.000  -0.357   0.000  -0.000
  0.029  -0.036  -0.000  -3.598  -0.000   0.000  -0.583   0.000
  0.000  -0.000   0.000  -0.000  -3.656  -0.000   0.000  -0.357
 -0.000   0.000  -0.357   0.000  -0.000  50.841  -0.000   0.000
  0.141  -0.257   0.000  -0.583   0.000  -0.000  51.353  -0.000
  0.000  -0.000  -0.000   0.000  -0.357   0.000  -0.000  50.841
 total augmentation occupancy for first ion, spin component:           1
  1.963   0.041   0.000  -0.105  -0.000  -0.000   0.046   0.000
  0.041   0.002   0.000   0.039   0.000   0.000   0.004   0.000
  0.000   0.000   0.563  -0.000   0.000   0.030   0.000   0.000
 -0.105   0.039  -0.000   1.790  -0.000   0.000   0.092  -0.000
 -0.000   0.000   0.000  -0.000   0.564   0.000  -0.000   0.030
 -0.000   0.000   0.030   0.000   0.000   0.002   0.000   0.000
  0.046   0.004   0.000   0.092  -0.000   0.000   0.007  -0.000
  0.000   0.000   0.000  -0.000   0.030   0.000  -0.000   0.002


------------------------ aborting loop because EDIFF is reached ----------------------------------------


    FORLOC:  cpu time      0.0011: real time      0.0011
    FORHF :  cpu time     27.0593: real time     27.6680
    FORNL :  cpu time      0.1998: real time      0.2017
    FORCOR:  cpu time      0.0244: real time      0.0248
    OFIELD:  cpu time      0.0001: real time      0.0001

 VOLUME and BASIS-vectors are now :
 -----------------------------------------------------------------------------
  energy-cutoff  :      500.00
  volume of cell :     1548.92
      direct lattice vectors                 reciprocal lattice vectors
     8.440984654  0.000000000  0.000000000     0.118469591  0.000000000  0.000000000
     0.000000000  8.440984654  0.000000000     0.000000000  0.118469591  0.000000000
     0.000000000  0.000000000 21.739138756     0.000000000  0.000000000  0.045999982

  length of vectors
     8.440984654  8.440984654 21.739138756     0.118469591  0.118469591  0.045999982


 FORCES acting on ions:
    Electron-Ion                     Ewald-Force                    Non-Local-Force
 -----------------------------------------------------------------------------------------------
   -.577E-04 0.815E-04 -.532E+03   -.633E-14 0.184E-14 0.508E+03   0.336E-21 -.224E-21 0.269E+02
   0.154E-03 -.286E+01 0.970E+03   -.918E-13 0.283E+01 -.961E+03   0.504E-20 0.944E-02 -.245E+01
   0.286E+01 -.106E-03 0.970E+03   -.283E+01 -.583E-13 -.961E+03   -.944E-02 0.278E-20 -.245E+01
   0.159E-04 -.730E-04 -.860E+03   0.403E-14 0.676E-13 0.853E+03   -.106E-20 -.962E-21 0.220E+01
   0.180E+02 -.180E+02 -.837E+03   -.182E+02 0.182E+02 0.830E+03   0.322E-01 -.322E-01 0.225E+01
   -.160E-03 0.286E+01 0.970E+03   -.568E-13 -.283E+01 -.961E+03   -.466E-20 -.944E-02 -.245E+01
   0.416E+01 0.161E-03 0.976E+03   -.407E+01 0.569E-13 -.967E+03   -.317E-01 0.149E-20 -.248E+01
   0.190E-04 0.518E-05 -.845E+03   0.525E-13 -.710E-13 0.838E+03   0.260E-21 0.120E-20 0.221E+01
   0.180E+02 0.180E+02 -.837E+03   -.182E+02 -.182E+02 0.830E+03   0.322E-01 0.322E-01 0.225E+01
   -.117E-03 -.416E+01 0.976E+03   0.515E-13 0.407E+01 -.967E+03   0.134E-20 0.317E-01 -.248E+01
   -.286E+01 0.105E-03 0.970E+03   0.283E+01 -.565E-13 -.961E+03   0.944E-02 0.283E-20 -.245E+01
   0.200E-04 -.380E-04 -.845E+03   0.658E-14 0.636E-14 0.838E+03   0.219E-21 -.130E-21 0.221E+01
   -.180E+02 -.180E+02 -.837E+03   0.182E+02 0.182E+02 0.830E+03   -.322E-01 -.322E-01 0.225E+01
   -.101E-03 0.416E+01 0.976E+03   0.114E-12 -.407E+01 -.967E+03   -.704E-20 -.317E-01 -.248E+01
   -.416E+01 -.335E-04 0.976E+03   0.407E+01 0.284E-13 -.967E+03   0.317E-01 0.616E-20 -.248E+01
   -.583E-04 0.399E-04 -.780E+03   0.566E-13 -.740E-14 0.774E+03   0.233E-20 -.138E-20 0.174E+01
   -.180E+02 0.180E+02 -.837E+03   0.182E+02 -.182E+02 0.830E+03   -.322E-01 0.322E-01 0.225E+01
   0.647E-04 -.733E+01 -.670E+03   -.258E-13 0.727E+01 0.675E+03   -.126E-20 0.337E-01 -.271E+01
   0.733E+01 -.799E-03 -.670E+03   -.727E+01 -.389E-14 0.675E+03   -.337E-01 0.111E-20 -.271E+01
   0.318E-03 -.528E-04 0.734E+03   -.141E-13 -.726E-14 -.737E+03   0.121E-20 0.232E-20 0.126E+01
   0.256E+01 -.256E+01 0.739E+03   -.255E+01 0.255E+01 -.742E+03   -.327E-02 0.327E-02 0.131E+01
   -.289E-03 0.733E+01 -.670E+03   -.789E-12 -.727E+01 0.675E+03   -.699E-20 -.337E-01 -.271E+01
   0.236E+02 0.817E-03 -.640E+03   -.233E+02 -.613E-13 0.644E+03   -.185E+00 -.282E-20 -.267E+01
   -.110E-03 -.244E-04 0.739E+03   0.833E-11 -.712E-14 -.742E+03   -.397E-20 -.889E-21 0.127E+01
   0.256E+01 0.256E+01 0.739E+03   -.255E+01 -.255E+01 -.742E+03   -.327E-02 -.327E-02 0.131E+01
   -.231E-03 -.236E+02 -.640E+03   -.371E-13 0.233E+02 0.644E+03   0.402E-20 0.185E+00 -.267E+01
   -.733E+01 0.398E-03 -.670E+03   0.727E+01 -.208E-13 0.675E+03   0.337E-01 0.463E-20 -.271E+01
   0.307E-04 0.430E-03 0.739E+03   -.981E-12 -.840E-11 -.742E+03   0.212E-21 -.582E-20 0.127E+01
   -.256E+01 -.256E+01 0.739E+03   0.255E+01 0.255E+01 -.742E+03   0.327E-02 0.327E-02 0.131E+01
   0.273E-03 0.236E+02 -.640E+03   -.107E-12 -.233E+02 0.644E+03   0.440E-20 -.185E+00 -.267E+01
   -.236E+02 -.654E-03 -.640E+03   0.233E+02 -.142E-13 0.644E+03   0.185E+00 0.479E-20 -.267E+01
   0.126E-04 -.147E-03 0.738E+03   0.852E-13 0.497E-13 -.740E+03   -.142E-21 -.254E-21 0.941E+00
   -.256E+01 0.256E+01 0.739E+03   0.255E+01 -.255E+01 -.742E+03   0.327E-02 -.327E-02 0.131E+01
   -.534E-03 0.512E-03 -.118E+04   -.571E-14 0.161E-15 0.124E+04   -.225E-20 0.200E-20 -.331E+02
 -----------------------------------------------------------------------------------------------
   -.159E-02 0.127E-02 0.595E+02   -.319E-13 -.229E-13 0.682E-12   0.173E-17 -.130E-17 -.201E+02
 
 
 POSITION                                       TOTAL-FORCE (eV/Angst)
 -----------------------------------------------------------------------------------
      4.22049      4.22049     12.59232         0.000000      0.000000      6.350848
      0.00000      6.33023      8.00684         0.000000     -0.003688      0.724951
      2.11076      0.00000      8.00684         0.003688      0.000000      0.724951
      0.00000      0.00000     10.11137         0.000000      0.000000     -0.203456
      2.10905      6.33193     10.10762        -0.027441      0.027441     -0.251909
      0.00000      2.11076      8.00684         0.000000      0.003688      0.724951
      2.11344      4.22049      8.00975        -0.006376     -0.000000      0.750343
      0.00000      4.22049     10.10860         0.000000      0.000000     -0.223141
      2.10905      2.10905     10.10762        -0.027441     -0.027441     -0.251909
      4.22049      6.32754      8.00975         0.000000      0.006376      0.750343
      6.33023      0.00000      8.00684        -0.003688      0.000000      0.724951
      4.22049      0.00000     10.10860         0.000000      0.000000     -0.223141
      6.33193      6.33193     10.10762         0.027441      0.027441     -0.251909
      4.22049      2.11344      8.00975         0.000000     -0.006376      0.750343
      6.32754      4.22049      8.00975         0.006376      0.000000      0.750343
      4.22049      4.22049     10.15130         0.000000     -0.000000     -0.385467
      6.33193      2.10905     10.10762         0.027441     -0.027441     -0.251909
      0.00000      6.33258     10.15902         0.000000      0.000420     -0.147614
      2.10840      0.00000     10.15902        -0.000420     -0.000000     -0.147614
      0.00000      0.00000      8.00101         0.000000     -0.000000     -0.384918
      2.10979      6.33120      8.00206         0.002023     -0.002023     -0.384145
      0.00000      2.10840     10.15902         0.000000     -0.000420     -0.147614
      2.10031      4.22049     10.15697        -0.005203     -0.000000     -0.136067
      0.00000      4.22049      8.00000         0.000000     -0.000000     -0.391230
      2.10979      2.10979      8.00206         0.002023      0.002023     -0.384145
      4.22049      6.34068     10.15697         0.000000      0.005203     -0.136067
      6.33258      0.00000     10.15902         0.000420     -0.000000     -0.147614
      4.22049      0.00000      8.00000         0.000000      0.000000     -0.391230
      6.33120      6.33120      8.00206        -0.002023     -0.002023     -0.384145
      4.22049      2.10031     10.15697         0.000000     -0.005203     -0.136067
      6.34068      4.22049     10.15697         0.005203      0.000000     -0.136067
      4.22049      4.22049      8.01000         0.000000      0.000000     -0.382255
      6.33120      2.10979      8.00206        -0.002023      0.002023     -0.384145
      4.22049      4.22049     13.73914         0.000000      0.000000     -5.988249
 -----------------------------------------------------------------------------------
    total drift:                               -0.001593      0.001267      0.020617


--------------------------------------------------------------------------------------------------------



  FREE ENERGIE OF THE ION-ELECTRON SYSTEM (eV)
  ---------------------------------------------------
  free  energy   TOTEN  =      -373.21693131 eV

  energy  without entropy=     -373.21693131  energy(sigma->0) =     -373.21693131
 


--------------------------------------------------------------------------------------------------------


    POTLOK:  cpu time      0.0265: real time      0.0308


--------------------------------------------------------------------------------------------------------


 writing wavefunctions
     LOOP+:  cpu time   1972.2200: real time   2025.2643
    4ORBIT:  cpu time      0.0000: real time      0.0000

 total amount of memory used by VASP MPI-rank0   229309. kBytes
=======================================================================

   base      :      30000. kBytes
   nonl-proj :      21041. kBytes
   fftplans  :       5105. kBytes
   grid      :       4257. kBytes
   one-center:        209. kBytes
   HF        :        290. kBytes
   nonlr-proj:       3304. kBytes
   wavefun   :       2901. kBytes
   fock_wrk  :     162202. kBytes
 
  
  
 General timing and accounting informations for this job:
 ========================================================
  
                  Total CPU time used (sec):     1977.276
                            User time (sec):     1921.073
                          System time (sec):       56.204
                         Elapsed time (sec):     2030.232
  
                   Maximum memory used (kb):     1202240.
                   Average memory used (kb):          N/A
  
                          Minor page faults:      4280512
                          Major page faults:            0
                 Voluntary context switches:        25224
