 vasp.6.3.0 20Jan22 (build Apr  1 2022 16:44:48) complex                         
 executed on        HPECrayEX_GCC date 2022.09.24  18:10:48
 running  512 mpi-ranks, with    1 threads/rank
 distrk:  each k-point on  256 cores,    2 groups
 distr:  one band on NCORE=   4 cores,   64 groups


--------------------------------------------------------------------------------------------------------


 INCAR:
   SYSTEM = MgO-rocksalt
   ISMEAR = 0
   SIGMA = 0.05
   EDIFF = 1E-6
   ALGO = ALL
   ISTART = 0
   IBRION = 2
   NSW = 1000
   ISYM = 2
   ISIF = 2
   EDIFFG = -0.01
   DIPOL = 0.5 0.5 0.5
   IDIPOL = 3
   LDIPOL = .TRUE.
   GGA = RE
   LUSE_VDW = .TRUE.
   AGGAC = 0.0
   ENCUT = 600
   PREC = Normal
   LASPH = .TRUE.
   LREAL = .FALSE.
   ISPIN = 1
   NELM = 200
   NELMIN = 8
   NCORE = 4
   KPAR = 2
   LWAVE = .FALSE.
   LCHARG = .FALSE.

 POTCAR:    PAW_PBE Mg_pv 13Apr2007               
 POTCAR:    PAW_PBE O 08Apr2002                   
 -----------------------------------------------------------------------------
|                                                                             |
|               ----> ADVICE to this user running VASP <----                  |
|                                                                             |
|     You have switched on vdW-DFT.                                           |
|     This routine was written and supplied by Jiri Klimes. We recommend      |
|     that you carefully read and cite the following publications:            |
|       J. Klimes, D.R. Bowler, A. Michelides                                 |
|          J. Phys.: Cond Matt. 22 022201 (2010)                              |
|       J. Klimes, D.R. Bowler, A. Michelides                                 |
|          Phys. Rev. B. 83, 195131 (2011)                                    |
|     and references therein.                                                 |
|                                                                             |
 -----------------------------------------------------------------------------

 POTCAR:    PAW_PBE Mg_pv 13Apr2007               
   SHA256 =  f474ac0dd33840b9ae76c01d57fea79fdf77cdfbb07d5ade72c65f83c709b62b Mg_pv/POTCAR          
   COPYR  = (c) Copyright 13Apr2007 Georg Kresse                                                    
   COPYR  = This file is part of the software VASP. Any use, copying, and all other rights are regul
   COPYR  = If you do not have a valid VASP license, you may not use, copy or distribute this file. 
   VRHFIN =Mg: p6s2                                                                                 
   LEXCH  = PE                                                                                      
   EATOM  =  1056.7344 eV,   77.6678 Ry                                                             
                                                                                                    
   TITEL  = PAW_PBE Mg_pv 13Apr2007                                                                 
   LULTRA =        F    use ultrasoft PP ?                                                          
   IUNSCR =        1    unscreen: 0-lin 1-nonlin 2-no                                               
   RPACOR =    1.500    partial core radius                                                         
   POMASS =   24.305; ZVAL   =    8.000    mass and valenz                                          
   RCORE  =    2.000    outmost cutoff radius                                                       
   RWIGS  =    2.000; RWIGS  =    1.058    wigner-seitz radius (au A)                               
   ENMAX  =  403.929; ENMIN  =  302.947 eV                                                          
   RCLOC  =    1.506    cutoff for local pot                                                        
   LCOR   =        T    correct aug charges                                                         
   LPAW   =        T    paw PP                                                                      
   EAUG   =  758.780                                                                                
   DEXC   =    0.000                                                                                
   RMAX   =    2.045    core radius for proj-oper                                                   
   RAUG   =    1.300    factor for augmentation sphere                                              
   RDEP   =    2.025    radius for radial grids                                                     
   RDEPT  =    1.557    core radius for aug-charge                                                  
                                                                                                    
   Atomic configuration                                                                             
    5 entries                                                                                       
     n  l   j            E        occ.                                                              
     1  0  0.50     -1259.6230   2.0000                                                             
     2  0  0.50       -79.8442   2.0000                                                             
     2  1  1.50       -46.6121   6.0000                                                             
     3  0  0.50        -4.7055   2.0000                                                             
     3  2  1.50        -1.3606   0.0000                                                             
   Description                                                                                      
     l       E           TYP  RCUT    TYP  RCUT                                                     
     1    -46.6121073     23  1.600                                                                 
     1      2.7211652     23  1.600                                                                 
     0     -4.7054661     23  2.000                                                                 
     0     61.2262170     23  2.000                                                                 
     2     -1.3605826     23  2.000                                                                 
  local pseudopotential read in
  partial core-charges read in
  partial kinetic energy density read in
  atomic valenz-charges read in
  non local Contribution for L=           1  read in
    real space projection operators read in
  non local Contribution for L=           1  read in
    real space projection operators read in
  non local Contribution for L=           0  read in
    real space projection operators read in
  non local Contribution for L=           0  read in
    real space projection operators read in
  non local Contribution for L=           2  read in
    real space projection operators read in
    PAW grid and wavefunctions read in

   number of l-projection  operators is LMAX  =           5
   number of lm-projection operators is LMMAX =          13

 POTCAR:    PAW_PBE O 08Apr2002                   
   SHA256 =  818f92134a0a090dccd8ba1447fa70422a3b330e708bb4f08108d8ae51209ddf O/POTCAR              
   COPYR  = (c) Copyright 08Apr2002 Georg Kresse                                                    
   COPYR  = This file is part of the software VASP. Any use, copying, and all other rights are regul
   COPYR  = If you do not have a valid VASP license, you may not use, copy or distribute this file. 
   VRHFIN =O: s2p4                                                                                  
   LEXCH  = PE                                                                                      
   EATOM  =   432.3788 eV,   31.7789 Ry                                                             
                                                                                                    
   TITEL  = PAW_PBE O 08Apr2002                                                                     
   LULTRA =        F    use ultrasoft PP ?                                                          
   IUNSCR =        1    unscreen: 0-lin 1-nonlin 2-no                                               
   RPACOR =    1.200    partial core radius                                                         
   POMASS =   16.000; ZVAL   =    6.000    mass and valenz                                          
   RCORE  =    1.520    outmost cutoff radius                                                       
   RWIGS  =    1.550; RWIGS  =    0.820    wigner-seitz radius (au A)                               
   ENMAX  =  400.000; ENMIN  =  300.000 eV                                                          
   ICORE  =        2    local potential                                                             
   LCOR   =        T    correct aug charges                                                         
   LPAW   =        T    paw PP                                                                      
   EAUG   =  605.392                                                                                
   DEXC   =    0.000                                                                                
   RMAX   =    1.553    core radius for proj-oper                                                   
   RAUG   =    1.300    factor for augmentation sphere                                              
   RDEP   =    1.550    radius for radial grids                                                     
   RDEPT  =    1.329    core radius for aug-charge                                                  
                                                                                                    
   Atomic configuration                                                                             
    4 entries                                                                                       
     n  l   j            E        occ.                                                              
     1  0  0.50      -514.6923   2.0000                                                             
     2  0  0.50       -23.9615   2.0000                                                             
     2  1  0.50        -9.0305   4.0000                                                             
     3  2  1.50        -9.5241   0.0000                                                             
   Description                                                                                      
     l       E           TYP  RCUT    TYP  RCUT                                                     
     0    -23.9615318     23  1.200                                                                 
     0     -9.5240782     23  1.200                                                                 
     1     -9.0304911     23  1.520                                                                 
     1      8.1634956     23  1.520                                                                 
     2     -9.5240782      7  1.500                                                                 
  local pseudopotential read in
  partial core-charges read in
  partial kinetic energy density read in
  kinetic energy density of atom read in
  atomic valenz-charges read in
  non local Contribution for L=           0  read in
    real space projection operators read in
  non local Contribution for L=           0  read in
    real space projection operators read in
  non local Contribution for L=           1  read in
    real space projection operators read in
  non local Contribution for L=           1  read in
    real space projection operators read in
    PAW grid and wavefunctions read in

   number of l-projection  operators is LMAX  =           4
   number of lm-projection operators is LMMAX =           8

 -----------------------------------------------------------------------------
|                                                                             |
|               ----> ADVICE to this user running VASP <----                  |
|                                                                             |
|     You have a (more or less) 'large supercell' and for larger cells it     |
|     might be more efficient to use real-space projection operators.         |
|     Therefore, try LREAL= Auto in the INCAR file.                           |
|     Mind: For very accurate calculation, you might also keep the            |
|     reciprocal projection scheme (i.e. LREAL=.FALSE.).                      |
|                                                                             |
 -----------------------------------------------------------------------------

 -----------------------------------------------------------------------------
|                                                                             |
|               ----> ADVICE to this user running VASP <----                  |
|                                                                             |
|     You enforced a specific xc type in the INCAR file but a different       |
|     type was found in the POTCAR file.                                      |
|     I HOPE YOU KNOW WHAT YOU ARE DOING!                                     |
|                                                                             |
 -----------------------------------------------------------------------------

  PAW_PBE Mg_pv 13Apr2007               :
 energy of atom  1       EATOM=-1056.7344
 kinetic energy error for atom=    0.0221 (will be added to EATOM!!)
  PAW_PBE O 08Apr2002                   :
 energy of atom  2       EATOM= -432.3788
 kinetic energy error for atom=    0.0168 (will be added to EATOM!!)


 POSCAR: Mg  O
  positions in direct lattice
  No initial velocities read in
 exchange correlation table for  LEXCH =       40
   RHO(1)=    0.500       N(1)  =     2000
   RHO(2)=  100.500       N(2)  =     4000



--------------------------------------------------------------------------------------------------------


 ion  position               nearest neighbor table
   1  0.000  0.750  0.350-  33 2.14  35 2.14  36 2.14  43 2.14  52 2.14
   2  0.250  0.000  0.350-  34 2.14  35 2.14  36 2.14  44 2.14  51 2.14
   3  0.000  0.000  0.450-  35 2.14  34 2.14  33 2.14  41 2.14  50 2.14  39 2.14
   4  0.250  0.750  0.450-  36 2.14  34 2.14  33 2.14  42 2.14  49 2.14  40 2.14
   5  0.000  0.750  0.550-  37 2.14  39 2.14  40 2.14  47 2.14  56 2.14  33 2.14
   6  0.250  0.000  0.550-  38 2.14  39 2.14  40 2.14  48 2.14  55 2.14  34 2.14
   7  0.000  0.000  0.650-  39 2.14  38 2.14  37 2.14  45 2.14  54 2.14
   8  0.250  0.750  0.650-  40 2.14  38 2.14  37 2.14  46 2.14  53 2.14
   9  0.000  0.250  0.350-  41 2.14  35 2.14  43 2.14  44 2.14  60 2.14
  10  0.250  0.500  0.350-  42 2.14  36 2.14  43 2.14  44 2.14  59 2.14
  11  0.000  0.500  0.450-  43 2.14  41 2.14  42 2.14  33 2.14  58 2.14  47 2.14
  12  0.250  0.250  0.450-  44 2.14  41 2.14  42 2.14  34 2.14  57 2.14  48 2.14
  13  0.000  0.250  0.550-  45 2.14  39 2.14  47 2.14  48 2.14  64 2.14  41 2.14
  14  0.250  0.500  0.550-  46 2.14  40 2.14  47 2.14  48 2.14  63 2.14  42 2.14
  15  0.000  0.500  0.650-  47 2.14  45 2.14  46 2.14  37 2.14  62 2.14
  16  0.250  0.250  0.650-  48 2.14  45 2.14  46 2.14  38 2.14  61 2.14
  17  0.500  0.750  0.350-  49 2.14  36 2.14  51 2.14  52 2.14  59 2.14
  18  0.750  0.000  0.350-  50 2.14  35 2.14  51 2.14  52 2.14  60 2.14
  19  0.500  0.000  0.450-  51 2.14  49 2.14  50 2.14  34 2.14  57 2.14  55 2.14
  20  0.750  0.750  0.450-  52 2.14  49 2.14  50 2.14  33 2.14  58 2.14  56 2.14
  21  0.500  0.750  0.550-  53 2.14  40 2.14  55 2.14  56 2.14  63 2.14  49 2.14
  22  0.750  0.000  0.550-  54 2.14  39 2.14  55 2.14  56 2.14  64 2.14  50 2.14
  23  0.500  0.000  0.650-  55 2.14  53 2.14  54 2.14  38 2.14  61 2.14
  24  0.750  0.750  0.650-  56 2.14  53 2.14  54 2.14  37 2.14  62 2.14
  25  0.500  0.250  0.350-  57 2.14  51 2.14  44 2.14  59 2.14  60 2.14
  26  0.750  0.500  0.350-  58 2.14  52 2.14  43 2.14  59 2.14  60 2.14
  27  0.500  0.500  0.450-  59 2.14  49 2.14  57 2.14  58 2.14  42 2.14  63 2.14
  28  0.750  0.250  0.450-  60 2.14  50 2.14  57 2.14  58 2.14  41 2.14  64 2.14
  29  0.500  0.250  0.550-  61 2.14  55 2.14  48 2.14  63 2.14  64 2.14  57 2.14
  30  0.750  0.500  0.550-  62 2.14  56 2.14  47 2.14  63 2.14  64 2.14  58 2.14
  31  0.500  0.500  0.650-  63 2.14  53 2.14  61 2.14  62 2.14  46 2.14
  32  0.750  0.250  0.650-  64 2.14  54 2.14  61 2.14  62 2.14  45 2.14
  33  0.000  0.750  0.450-   1 2.14   3 2.14   4 2.14  11 2.14  20 2.14   5 2.14
  34  0.250  0.000  0.450-   2 2.14   3 2.14   4 2.14  12 2.14  19 2.14   6 2.14
  35  0.000  0.000  0.350-   3 2.14   2 2.14   1 2.14   9 2.14  18 2.14
  36  0.250  0.750  0.350-   4 2.14   2 2.14   1 2.14  10 2.14  17 2.14
  37  0.000  0.750  0.650-   5 2.14   7 2.14   8 2.14  15 2.14  24 2.14
  38  0.250  0.000  0.650-   6 2.14   7 2.14   8 2.14  16 2.14  23 2.14
  39  0.000  0.000  0.550-   7 2.14   6 2.14   5 2.14  13 2.14  22 2.14   3 2.14
  40  0.250  0.750  0.550-   8 2.14   6 2.14   5 2.14  14 2.14  21 2.14   4 2.14
  41  0.000  0.250  0.450-   9 2.14   3 2.14  11 2.14  12 2.14  28 2.14  13 2.14
  42  0.250  0.500  0.450-  10 2.14   4 2.14  11 2.14  12 2.14  27 2.14  14 2.14
  43  0.000  0.500  0.350-  11 2.14   9 2.14  10 2.14   1 2.14  26 2.14
  44  0.250  0.250  0.350-  12 2.14   9 2.14  10 2.14   2 2.14  25 2.14
  45  0.000  0.250  0.650-  13 2.14   7 2.14  15 2.14  16 2.14  32 2.14
  46  0.250  0.500  0.650-  14 2.14   8 2.14  15 2.14  16 2.14  31 2.14
  47  0.000  0.500  0.550-  15 2.14  13 2.14  14 2.14   5 2.14  30 2.14  11 2.14
  48  0.250  0.250  0.550-  16 2.14  13 2.14  14 2.14   6 2.14  29 2.14  12 2.14
  49  0.500  0.750  0.450-  17 2.14   4 2.14  19 2.14  20 2.14  27 2.14  21 2.14
  50  0.750  0.000  0.450-  18 2.14   3 2.14  19 2.14  20 2.14  28 2.14  22 2.14
  51  0.500  0.000  0.350-  19 2.14  17 2.14  18 2.14   2 2.14  25 2.14
  52  0.750  0.750  0.350-  20 2.14  17 2.14  18 2.14   1 2.14  26 2.14
  53  0.500  0.750  0.650-  21 2.14   8 2.14  23 2.14  24 2.14  31 2.14
  54  0.750  0.000  0.650-  22 2.14   7 2.14  23 2.14  24 2.14  32 2.14
  55  0.500  0.000  0.550-  23 2.14  21 2.14  22 2.14   6 2.14  29 2.14  19 2.14
  56  0.750  0.750  0.550-  24 2.14  21 2.14  22 2.14   5 2.14  30 2.14  20 2.14
  57  0.500  0.250  0.450-  25 2.14  19 2.14  12 2.14  27 2.14  28 2.14  29 2.14
  58  0.750  0.500  0.450-  26 2.14  20 2.14  11 2.14  27 2.14  28 2.14  30 2.14
  59  0.500  0.500  0.350-  27 2.14  17 2.14  25 2.14  26 2.14  10 2.14
  60  0.750  0.250  0.350-  28 2.14  18 2.14  25 2.14  26 2.14   9 2.14
  61  0.500  0.250  0.650-  29 2.14  23 2.14  16 2.14  31 2.14  32 2.14
  62  0.750  0.500  0.650-  30 2.14  24 2.14  15 2.14  31 2.14  32 2.14
  63  0.500  0.500  0.550-  31 2.14  21 2.14  29 2.14  30 2.14  14 2.14  27 2.14
  64  0.750  0.250  0.550-  32 2.14  22 2.14  29 2.14  30 2.14  13 2.14  28 2.14

  LATTYP: Found a simple tetragonal cell.
 ALAT       =     8.5461136257
 C/A-ratio  =     2.5051837779
  
  Lattice vectors:
  
 A1 = (   8.5461136257,   0.0000000000,   0.0000000000)
 A2 = (   0.0000000000,   8.5461136257,   0.0000000000)
 A3 = (   0.0000000000,   0.0000000000,  21.4095852193)


Analysis of symmetry for initial positions (statically):
=====================================================================
 Subroutine PRICEL returns following result:
 
  LATTYP: Found a simple tetragonal cell.
 ALAT       =     3.0215074488
 C/A-ratio  =     7.0857297499
  
  Lattice vectors:
  
 A1 = (   2.1365284064,  -2.1365284064,   0.0000000000)
 A2 = (   2.1365284064,   2.1365284064,   0.0000000000)
 A3 = (   0.0000000000,   0.0000000000,  21.4095852193)
 
   8 primitive cells build up your supercell.
 

 Routine SETGRP: Setting up the symmetry group for a 
 simple tetragonal supercell.


 Subroutine GETGRP returns: Found 16 space group operations
 (whereof  8 operations were pure point group operations)
 out of a pool of 16 trial point group operations.


The static configuration has the point symmetry C_4v.
 The point group associated with its full space group is D_4h.


Analysis of symmetry for dynamics (positions and initial velocities):
=====================================================================
 Subroutine PRICEL returns following result:
 
  LATTYP: Found a simple tetragonal cell.
 ALAT       =     3.0215074488
 C/A-ratio  =     7.0857297499
  
  Lattice vectors:
  
 A1 = (   2.1365284064,  -2.1365284064,   0.0000000000)
 A2 = (   2.1365284064,   2.1365284064,   0.0000000000)
 A3 = (   0.0000000000,   0.0000000000,  21.4095852193)
 
   8 primitive cells build up your supercell.
 

 Routine SETGRP: Setting up the symmetry group for a 
 simple tetragonal supercell.


 Subroutine GETGRP returns: Found 16 space group operations
 (whereof  8 operations were pure point group operations)
 out of a pool of 16 trial point group operations.


The dynamic configuration has the point symmetry C_4v.
 The point group associated with its full space group is D_4h.


Analysis of constrained symmetry for selective dynamics:
=====================================================================
 Subroutine PRICEL returns following result:
 
  LATTYP: Found a simple tetragonal cell.
 ALAT       =     3.0215074488
 C/A-ratio  =     7.0857297499
  
  Lattice vectors:
  
 A1 = (   2.1365284064,  -2.1365284064,   0.0000000000)
 A2 = (   2.1365284064,   2.1365284064,   0.0000000000)
 A3 = (   0.0000000000,   0.0000000000,  21.4095852193)
 
   8 primitive cells build up your supercell.
 

 Routine SETGRP: Setting up the symmetry group for a 
 simple tetragonal supercell.


 Subroutine GETGRP returns: Found  8 space group operations
 (whereof  8 operations were pure point group operations)
 out of a pool of 16 trial point group operations.


The constrained configuration has the point symmetry C_4v.


 Subroutine INISYM returns: Found  8 space group operations
 (whereof  8 operations are pure point group operations),
 and found     8 'primitive' translations


----------------------------------------------------------------------------------------

                                     Primitive cell                                     

  volume of cell :     195.4590

  direct lattice vectors                    reciprocal lattice vectors
     2.136528406 -2.136528406  0.000000000     0.234024504 -0.234024504  0.000000000
     2.136528406  2.136528406  0.000000000     0.234024504  0.234024504 -0.000000000
     0.000000000  0.000000000 21.409585219    -0.000000000  0.000000000  0.046708051

  length of vectors
     3.021507449  3.021507449 21.409585219     0.330960627  0.330960627  0.046708051

  position of ions in fractional coordinates (direct lattice)
     0.500000000  0.500000000  0.350310383
     0.000000000  0.000000000  0.450103461
     0.500000000  0.500000000  0.549896539
     0.000000000  0.000000000  0.649689617
     0.500000000  0.500000000  0.450103461
     0.000000000  0.000000000  0.350310383
     0.500000000  0.500000000  0.649689617
     0.000000000  0.000000000  0.549896539

  ion indices of the primitive-cell ions
   primitive index   ion index
                 1           1
                 2           3
                 3           5
                 4           7
                 5          33
                 6          35
                 7          37
                 8          39

----------------------------------------------------------------------------------------



 KPOINTS: pymatgen v2020.8.13 with grid density = 

Automatic generation of k-mesh.
 Grid dimensions read from file:
 generate k-points for:    2    2    1

 Generating k-lattice:

  Cartesian coordinates                     Fractional coordinates (reciprocal lattice)
     0.058506126  0.000000000  0.000000000     0.500000000  0.000000000  0.000000000
     0.000000000  0.058506126  0.000000000     0.000000000  0.500000000  0.000000000
     0.000000000  0.000000000  0.046708051     0.000000000  0.000000000  1.000000000

  Length of vectors
     0.058506126  0.058506126  0.046708051

  Shift w.r.t. Gamma in fractional coordinates (k-lattice)
     0.000000000  0.000000000  0.000000000

 
 Subroutine IBZKPT returns following result:
 ===========================================
 
 Found      3 irreducible k-points:
 
 Following reciprocal coordinates:
            Coordinates               Weight
  0.000000  0.000000  0.000000      1.000000
  0.500000  0.000000  0.000000      2.000000
  0.500000  0.500000  0.000000      1.000000
 
 Following cartesian coordinates:
            Coordinates               Weight
  0.000000  0.000000  0.000000      1.000000
  0.058506  0.000000  0.000000      2.000000
  0.058506  0.058506  0.000000      1.000000
 


--------------------------------------------------------------------------------------------------------




 Dimension of arrays:
   k-points           NKPTS =      3   k-points in BZ     NKDIM =      3   number of bands    NBANDS=    320
   number of dos      NEDOS =    301   number of ions     NIONS =     64
   non local maximal  LDIM  =      5   non local SUM 2l+1 LMDIM =     13
   total plane-waves  NPLWV = 373248
   max r-space proj   IRMAX =      1   max aug-charges    IRDMAX=   4903
   dimension x,y,z NGX =    54 NGY =   54 NGZ =  128
   dimension x,y,z NGXF=   108 NGYF=  108 NGZF=  256
   support grid    NGXF=   108 NGYF=  108 NGZF=  256
   ions per type =              32  32
   NGX,Y,Z   is equivalent  to a cutoff of  10.50, 10.50,  9.94 a.u.
   NGXF,Y,Z  is equivalent  to a cutoff of  21.01, 21.01, 19.88 a.u.

 SYSTEM =  MgO-rocksalt                            
 POSCAR =  Mg  O                                   

 Startparameter for this run:
   NWRITE =      2    write-flag & timer
   PREC   = normal    normal or accurate (medium, high low for compatibility)
   ISTART =      0    job   : 0-new  1-cont  2-samecut
   ICHARG =      2    charge: 1-file 2-atom 10-const
   ISPIN  =      1    spin polarized calculation?
   LNONCOLLINEAR =      F non collinear calculations
   LSORBIT =      F    spin-orbit coupling
   INIWAV =      1    electr: 0-lowe 1-rand  2-diag
   LASPH  =      T    aspherical Exc in radial PAW
 Electronic Relaxation 1
   ENCUT  =  600.0 eV  44.10 Ry    6.64 a.u.  17.07 17.07 42.76*2*pi/ulx,y,z
   ENINI  =  600.0     initial cutoff
   ENAUG  =  758.8 eV  augmentation charge cutoff
   NELM   =    200;   NELMIN=  8; NELMDL= -5     # of ELM steps 
   EDIFF  = 0.1E-05   stopping-criterion for ELM
   LREAL  =      F    real-space projection
   NLSPLINE    = F    spline interpolate recip. space projectors
   LCOMPAT=      F    compatible to vasp.4.4
   GGA_COMPAT  = T    GGA compatible to vasp.4.4-vasp.4.6
   LMAXPAW     = -100 max onsite density
   LMAXMIX     =    2 max onsite mixed and CHGCAR
   VOSKOWN=      0    Vosko Wilk Nusair interpolation
   ROPT   =    0.00000   0.00000
 Ionic relaxation
   EDIFFG = -.1E-01   stopping-criterion for IOM
   NSW    =   1000    number of steps for IOM
   NBLOCK =      1;   KBLOCK =   1000    inner block; outer block 
   IBRION =      2    ionic relax: 0-MD 1-quasi-New 2-CG
   NFREE  =      1    steps in history (QN), initial steepest desc. (CG)
   ISIF   =      2    stress and relaxation
   IWAVPR =     11    prediction:  0-non 1-charg 2-wave 3-comb
   ISYM   =      2    0-nonsym 1-usesym 2-fastsym
   LCORR  =      T    Harris-Foulkes like correction to forces

   POTIM  = 0.5000    time-step for ionic-motion
   TEIN   =    0.0    initial temperature
   TEBEG  =    0.0;   TEEND  =   0.0 temperature during run
   SMASS  =  -3.00    Nose mass-parameter (am)
   estimated Nose-frequenzy (Omega)   =  0.10E-29 period in steps = 0.13E+47 mass=  -0.167E-26a.u.
   SCALEE = 1.0000    scale energy and forces
   NPACO  =    256;   APACO  = 10.0  distance and # of slots for P.C.
   PSTRESS=    0.0 pullay stress

  Mass of Ions in am
   POMASS =  24.30 16.00
  Ionic Valenz
   ZVAL   =   8.00  6.00
  Atomic Wigner-Seitz radii
   RWIGS  =  -1.00 -1.00
  virtual crystal weights 
   VCA    =   1.00  1.00
   NELECT =     448.0000    total number of electrons
   NUPDOWN=      -1.0000    fix difference up-down

 DOS related values:
   EMIN   =  10.00;   EMAX   =-10.00  energy-range for DOS
   EFERMI =   0.00
   ISMEAR =     0;   SIGMA  =   0.05  broadening in eV -4-tet -1-fermi 0-gaus

 Electronic relaxation 2 (details)
   IALGO  =     58    algorithm
   LDIAG  =      T    sub-space diagonalisation (order eigenvalues)
   LSUBROT=      F    optimize rotation matrix (better conditioning)
   TURBO    =      0    0=normal 1=particle mesh
   IRESTART =      0    0=no restart 2=restart with 2 vectors
   NREBOOT  =      0    no. of reboots
   NMIN     =      0    reboot dimension
   EREF     =   0.00    reference energy to select bands
   IMIX   =      4    mixing-type and parameters
     AMIX     =   0.40;   BMIX     =  1.00
     AMIX_MAG =   1.60;   BMIX_MAG =  1.00
     AMIN     =   0.10
     WC   =   100.;   INIMIX=   1;  MIXPRE=   1;  MAXMIX= -45

 Intra band minimization:
   WEIMIN = 0.0010     energy-eigenvalue tresh-hold
   EBREAK =  0.78E-09  absolut break condition
   DEPER  =   0.30     relativ break condition  

   TIME   =   0.40     timestep for ELM

  volume/ion in A,a.u.               =      24.43       164.88
  Fermi-wavevector in a.u.,A,eV,Ry     =   1.079242  2.039472 15.847577  1.164764
  Thomas-Fermi vector in A             =   2.215202

 Write flags
   LWAVE        =      F    write WAVECAR
   LDOWNSAMPLE  =      F    k-point downsampling of WAVECAR
   LCHARG       =      F    write CHGCAR
   LVTOT        =      F    write LOCPOT, total local potential
   LVHAR        =      F    write LOCPOT, Hartree potential only
   LELF         =      F    write electronic localiz. function (ELF)
   LORBIT       =      0    0 simple, 1 ext, 2 COOP (PROOUT), +10 PAW based schemes


 Dipole corrections
   LMONO  =      F    monopole corrections only (constant potential shift)
   LDIPOL =      T    correct potential (dipole corrections)
   IDIPOL =      3    1-x, 2-y, 3-z, 4-all directions 
   EPSILON=  1.0000000 bulk dielectric constant

 Exchange correlation treatment:
   GGA     =    RE    GGA type
   LEXCH   =    40    internal setting for exchange type
   LIBXC   =     F    Libxc                    
   VOSKOWN =     0    Vosko Wilk Nusair interpolation
   LHFCALC =     F    Hartree Fock is set to
   LHFONE  =     F    Hartree Fock one center treatment
   AEXX    =    0.0000 exact exchange contribution

 vdW DFT:
   LUSE_VDW   =     T    switch on vdW DFT
   Zab_VDW    =-.8491    correlation parameter
   PARAM1     =0.1234
   PARAM2     =1.0000
   PARAM3     =0.0000
   -- rVV10 --
   BPARAM     = 6.3000
   CPARAM     = 0.0093

 Linear response parameters
   LEPSILON=     F    determine dielectric tensor
   LRPA    =     F    only Hartree local field effects (RPA)
   LNABLA  =     F    use nabla operator in PAW spheres
   LVEL    =     F    velocity operator in full k-point grid
   CSHIFT  =0.1000    complex shift for real part using Kramers Kronig
   OMEGAMAX=  -1.0    maximum frequency
   DEG_THRESHOLD= 0.2000000E-02 threshold for treating states as degnerate
   RTIME   =   -0.100 relaxation time in fs
  (WPLASMAI=    0.000 imaginary part of plasma frequency in eV, 0.658/RTIME)
   DFIELD  = 0.0000000 0.0000000 0.0000000 field for delta impulse in time

  Optional k-point grid parameters
   LKPOINTS_OPT  =     F    use optional k-point grid
   KPOINTS_OPT_MODE=     1    mode for optional k-point grid

 Orbital magnetization related:
   ORBITALMAG=     F  switch on orbital magnetization
   LCHIMAG   =     F  perturbation theory with respect to B field
   DQ        =  0.001000  dq finite difference perturbation B field
   LLRAUG    =     F  two centre corrections for induced B field



--------------------------------------------------------------------------------------------------------


 conjugate gradient relaxation of ions
   using selective dynamics as specified on POSCAR
 charge density and potential will be updated during run
 non-spin polarized calculation
 Conjugate gradient for all bands (Freysoldt, et al. PRB 79, 241103 (2009))
 preconditioned conjugated gradient                                        
 perform sub-space diagonalisation
    before iterative eigenvector-optimisation
 modified Broyden-mixing scheme, WC =      100.0
 initial mixing is a Kerker type mixing with AMIX =  0.4000 and BMIX =      1.0000
 Hartree-type preconditioning will be used
 using additional bands           96
 reciprocal scheme for non local part
 use partial core corrections
 no Harris-corrections to forces 
 use gradient corrections 
 use of overlap-Matrix (Vanderbilt PP)
 Gauss-broadening in eV      SIGMA  =   0.05


--------------------------------------------------------------------------------------------------------


  energy-cutoff  :      600.00
  volume of cell :     1563.67
      direct lattice vectors                 reciprocal lattice vectors
     8.546113626  0.000000000  0.000000000     0.117012252  0.000000000  0.000000000
     0.000000000  8.546113626  0.000000000     0.000000000  0.117012252  0.000000000
     0.000000000  0.000000000 21.409585219     0.000000000  0.000000000  0.046708051

  length of vectors
     8.546113626  8.546113626 21.409585219     0.117012252  0.117012252  0.046708051



 k-points in units of 2pi/SCALE and weight: pymatgen v2020.8.13 with grid density = 
   0.00000000  0.00000000  0.00000000       0.250
   0.05850613  0.00000000  0.00000000       0.500
   0.05850613  0.05850613  0.00000000       0.250

 k-points in reciprocal lattice and weights: pymatgen v2020.8.13 with grid density = 
   0.00000000  0.00000000  0.00000000       0.250
   0.50000000  0.00000000  0.00000000       0.500
   0.50000000  0.50000000  0.00000000       0.250

 position of ions in fractional coordinates (direct lattice) 
   0.00000000  0.75000000  0.35031038
   0.25000000  0.00000000  0.35031038
   0.00000000  0.00000000  0.45010346
   0.25000000  0.75000000  0.45010346
   0.00000000  0.75000000  0.54989654
   0.25000000  0.00000000  0.54989654
   0.00000000  0.00000000  0.64968962
   0.25000000  0.75000000  0.64968962
   0.00000000  0.25000000  0.35031038
   0.25000000  0.50000000  0.35031038
   0.00000000  0.50000000  0.45010346
   0.25000000  0.25000000  0.45010346
   0.00000000  0.25000000  0.54989654
   0.25000000  0.50000000  0.54989654
   0.00000000  0.50000000  0.64968962
   0.25000000  0.25000000  0.64968962
   0.50000000  0.75000000  0.35031038
   0.75000000  0.00000000  0.35031038
   0.50000000  0.00000000  0.45010346
   0.75000000  0.75000000  0.45010346
   0.50000000  0.75000000  0.54989654
   0.75000000  0.00000000  0.54989654
   0.50000000  0.00000000  0.64968962
   0.75000000  0.75000000  0.64968962
   0.50000000  0.25000000  0.35031038
   0.75000000  0.50000000  0.35031038
   0.50000000  0.50000000  0.45010346
   0.75000000  0.25000000  0.45010346
   0.50000000  0.25000000  0.54989654
   0.75000000  0.50000000  0.54989654
   0.50000000  0.50000000  0.64968962
   0.75000000  0.25000000  0.64968962
   0.00000000  0.75000000  0.45010346
   0.25000000  0.00000000  0.45010346
   0.00000000  0.00000000  0.35031038
   0.25000000  0.75000000  0.35031038
   0.00000000  0.75000000  0.64968962
   0.25000000  0.00000000  0.64968962
   0.00000000  0.00000000  0.54989654
   0.25000000  0.75000000  0.54989654
   0.00000000  0.25000000  0.45010346
   0.25000000  0.50000000  0.45010346
   0.00000000  0.50000000  0.35031038
   0.25000000  0.25000000  0.35031038
   0.00000000  0.25000000  0.64968962
   0.25000000  0.50000000  0.64968962
   0.00000000  0.50000000  0.54989654
   0.25000000  0.25000000  0.54989654
   0.50000000  0.75000000  0.45010346
   0.75000000  0.00000000  0.45010346
   0.50000000  0.00000000  0.35031038
   0.75000000  0.75000000  0.35031038
   0.50000000  0.75000000  0.64968962
   0.75000000  0.00000000  0.64968962
   0.50000000  0.00000000  0.54989654
   0.75000000  0.75000000  0.54989654
   0.50000000  0.25000000  0.45010346
   0.75000000  0.50000000  0.45010346
   0.50000000  0.50000000  0.35031038
   0.75000000  0.25000000  0.35031038
   0.50000000  0.25000000  0.64968962
   0.75000000  0.50000000  0.64968962
   0.50000000  0.50000000  0.54989654
   0.75000000  0.25000000  0.54989654

 position of ions in cartesian coordinates  (Angst):
   0.00000000  6.40958522  7.50000000
   2.13652841  0.00000000  7.50000000
   0.00000000  0.00000000  9.63652841
   2.13652841  6.40958522  9.63652841
   0.00000000  6.40958522 11.77305681
   2.13652841  0.00000000 11.77305681
   0.00000000  0.00000000 13.90958522
   2.13652841  6.40958522 13.90958522
   0.00000000  2.13652841  7.50000000
   2.13652841  4.27305681  7.50000000
   0.00000000  4.27305681  9.63652841
   2.13652841  2.13652841  9.63652841
   0.00000000  2.13652841 11.77305681
   2.13652841  4.27305681 11.77305681
   0.00000000  4.27305681 13.90958522
   2.13652841  2.13652841 13.90958522
   4.27305681  6.40958522  7.50000000
   6.40958522  0.00000000  7.50000000
   4.27305681  0.00000000  9.63652841
   6.40958522  6.40958522  9.63652841
   4.27305681  6.40958522 11.77305681
   6.40958522  0.00000000 11.77305681
   4.27305681  0.00000000 13.90958522
   6.40958522  6.40958522 13.90958522
   4.27305681  2.13652841  7.50000000
   6.40958522  4.27305681  7.50000000
   4.27305681  4.27305681  9.63652841
   6.40958522  2.13652841  9.63652841
   4.27305681  2.13652841 11.77305681
   6.40958522  4.27305681 11.77305681
   4.27305681  4.27305681 13.90958522
   6.40958522  2.13652841 13.90958522
   0.00000000  6.40958522  9.63652841
   2.13652841  0.00000000  9.63652841
   0.00000000  0.00000000  7.50000000
   2.13652841  6.40958522  7.50000000
   0.00000000  6.40958522 13.90958522
   2.13652841  0.00000000 13.90958522
   0.00000000  0.00000000 11.77305681
   2.13652841  6.40958522 11.77305681
   0.00000000  2.13652841  9.63652841
   2.13652841  4.27305681  9.63652841
   0.00000000  4.27305681  7.50000000
   2.13652841  2.13652841  7.50000000
   0.00000000  2.13652841 13.90958522
   2.13652841  4.27305681 13.90958522
   0.00000000  4.27305681 11.77305681
   2.13652841  2.13652841 11.77305681
   4.27305681  6.40958522  9.63652841
   6.40958522  0.00000000  9.63652841
   4.27305681  0.00000000  7.50000000
   6.40958522  6.40958522  7.50000000
   4.27305681  6.40958522 13.90958522
   6.40958522  0.00000000 13.90958522
   4.27305681  0.00000000 11.77305681
   6.40958522  6.40958522 11.77305681
   4.27305681  2.13652841  9.63652841
   6.40958522  4.27305681  9.63652841
   4.27305681  4.27305681  7.50000000
   6.40958522  2.13652841  7.50000000
   4.27305681  2.13652841 13.90958522
   6.40958522  4.27305681 13.90958522
   4.27305681  4.27305681 11.77305681
   6.40958522  2.13652841 11.77305681



--------------------------------------------------------------------------------------------------------


 k-point   1 :   0.0000 0.0000 0.0000  plane waves:   52089
 k-point   2 :   0.5000 0.0000 0.0000  plane waves:   52262
 k-point   3 :   0.5000 0.5000 0.0000  plane waves:   52144

 maximum and minimum number of plane-waves per node :     13108    12967

 maximum number of plane-waves:     52262
 maximum index in each direction: 
   IXMAX=   17   IYMAX=   17   IZMAX=   42
   IXMIN=  -17   IYMIN=  -17   IZMIN=  -42


 parallel 3D FFT for wavefunctions:
    minimum data exchange during FFTs selected (reduces bandwidth)
 parallel 3D FFT for charge:
    minimum data exchange during FFTs selected (reduces bandwidth)


 total amount of memory used by VASP MPI-rank0    70631. kBytes
=======================================================================

   base      :      30000. kBytes
   nonl-proj :      21621. kBytes
   fftplans  :       3860. kBytes
   grid      :       5439. kBytes
   one-center:        129. kBytes
   wavefun   :       9582. kBytes

     INWAV:  cpu time      0.0000: real time      0.0000
 Broyden mixing: mesh for mixing (old mesh)
   NGX = 35   NGY = 35   NGZ = 85
  (NGX  =108   NGY  =108   NGZ  =256)
  gives a total of 104125 points

 initial charge density was supplied:
 charge density of overlapping atoms calculated
 number of electron     448.0000000 magnetization 
 keeping initial charge density in first step


--------------------------------------------------------------------------------------------------------


 Maximum index for augmentation-charges          330 (set IRDMAX)


--------------------------------------------------------------------------------------------------------


 First call to EWALD:  gamma=   0.153
 Maximum number of real-space cells 4x 4x 2
 Maximum number of reciprocal cells 2x 2x 5

    FEWALD:  cpu time      0.0066: real time      0.0066


--------------------------------------- Iteration      1(   1)  ---------------------------------------


vdW kernel read from vdw_kernel.bindat
  0.0000  0.2424  0.5071  0.7962  1.1119  1.4567  1.8333  2.2446  2.6937  3.1842
  3.7199  4.3049  4.9438  5.6415  6.4036  7.2358  8.1446  9.1372 10.2212 11.4050
 12.6979 14.1099 15.6519 17.3360 19.1751 21.1837 23.3773 25.7729 28.3892 31.2465
 34.3669 37.7748 41.4965 45.5611 50.0000

    POTLOK:  cpu time      0.7273: real time      0.7299
    SETDIJ:  cpu time      0.1135: real time      0.1137
    TRIAL :  cpu time      4.7057: real time      4.7713
    CORREC:  cpu time      0.0009: real time      0.0012
    --------------------------------------------
      LOOP:  cpu time      5.5521: real time      5.6207

 eigenvalue-minimisations  :  2304
 total energy-change (2. order) : 0.4156022E+04  (-0.2983089E+05)
 number of electron     448.0000000 magnetization 
 augmentation part      448.0000000 magnetization 

 DIPCOR: dipole corrections for dipol
 direction  3 min pos     1,
 dipolmoment           0.000000      0.000000     -0.000000 electrons x Angstroem
 Tr[quadrupol]     -6114.568973

 energy correction for charged system         0.000000 eV
 dipol+quadrupol energy correction           -0.000000 eV
 added-field ion interaction          0.000000 eV  (added to PSCEN)


 Free energy of the ion-electron system (eV)
  ---------------------------------------------------
  alpha Z        PSCENC =       850.71337413
  Ewald energy   TEWEN  =    136386.27827841
  -Hartree energ DENC   =   -171875.86807271
  -exchange      EXHF   =         0.00000000
  -V(xc)+E(xc)   XCENC  =      1692.49910603
  PAW double counting   =     31934.84060886   -35728.35957167
  entropy T*S    EENTRO =        -0.01871632
  eigenvalues    EBANDS =     -7065.73803489
  atomic energy  EATOM  =     47961.67487076
  ---------------------------------------------------
  free energy    TOTEN  =      4156.02184259 eV

  energy without entropy =     4156.04055892  energy(sigma->0) =     4156.03120076


--------------------------------------------------------------------------------------------------------




--------------------------------------- Iteration      1(   2)  ---------------------------------------


    TRIAL :  cpu time      1.7090: real time      1.7094
    CORREC:  cpu time      0.0003: real time      0.0003
    --------------------------------------------
      LOOP:  cpu time      1.7135: real time      1.7225

 eigenvalue-minimisations  :  2304
 total energy-change (2. order) :-0.4136384E+04  (-0.4062803E+04)
 number of electron     448.0000000 magnetization 
 augmentation part      448.0000000 magnetization 

 DIPCOR: dipole corrections for dipol
 direction  3 min pos     1,
 dipolmoment           0.000000      0.000000     -0.000000 electrons x Angstroem
 Tr[quadrupol]     -6114.568973

 energy correction for charged system         0.000000 eV
 dipol+quadrupol energy correction           -0.000000 eV
 added-field ion interaction          0.000000 eV  (added to PSCEN)


 Free energy of the ion-electron system (eV)
  ---------------------------------------------------
  alpha Z        PSCENC =       850.71337413
  Ewald energy   TEWEN  =    136386.27827841
  -Hartree energ DENC   =   -171875.86807271
  -exchange      EXHF   =         0.00000000
  -V(xc)+E(xc)   XCENC  =      1692.49910603
  PAW double counting   =     31934.84060886   -35728.35957167
  entropy T*S    EENTRO =        -0.00000000
  eigenvalues    EBANDS =    -11202.14125049
  atomic energy  EATOM  =     47961.67487076
  ---------------------------------------------------
  free energy    TOTEN  =        19.63734332 eV

  energy without entropy =       19.63734332  energy(sigma->0) =       19.63734332


--------------------------------------------------------------------------------------------------------




--------------------------------------- Iteration      1(   3)  ---------------------------------------


    TRIAL :  cpu time      1.7856: real time      1.7860
    CORREC:  cpu time      0.0003: real time      0.0003
    --------------------------------------------
      LOOP:  cpu time      1.7904: real time      1.7992

 eigenvalue-minimisations  :  2304
 total energy-change (2. order) :-0.3129579E+03  (-0.3108830E+03)
 number of electron     448.0000000 magnetization 
 augmentation part      448.0000000 magnetization 

 DIPCOR: dipole corrections for dipol
 direction  3 min pos     1,
 dipolmoment           0.000000      0.000000     -0.000000 electrons x Angstroem
 Tr[quadrupol]     -6114.568973

 energy correction for charged system         0.000000 eV
 dipol+quadrupol energy correction           -0.000000 eV
 added-field ion interaction          0.000000 eV  (added to PSCEN)


 Free energy of the ion-electron system (eV)
  ---------------------------------------------------
  alpha Z        PSCENC =       850.71337413
  Ewald energy   TEWEN  =    136386.27827841
  -Hartree energ DENC   =   -171875.86807271
  -exchange      EXHF   =         0.00000000
  -V(xc)+E(xc)   XCENC  =      1692.49910603
  PAW double counting   =     31934.84060886   -35728.35957167
  entropy T*S    EENTRO =        -0.00000000
  eigenvalues    EBANDS =    -11515.09915261
  atomic energy  EATOM  =     47961.67487076
  ---------------------------------------------------
  free energy    TOTEN  =      -293.32055880 eV

  energy without entropy =     -293.32055880  energy(sigma->0) =     -293.32055880


--------------------------------------------------------------------------------------------------------




--------------------------------------- Iteration      1(   4)  ---------------------------------------


    TRIAL :  cpu time      1.8632: real time      1.8635
    CORREC:  cpu time      0.0004: real time      0.0004
    --------------------------------------------
      LOOP:  cpu time      1.8679: real time      1.8765

 eigenvalue-minimisations  :  2368
 total energy-change (2. order) :-0.5799282E+01  (-0.5792685E+01)
 number of electron     448.0000000 magnetization 
 augmentation part      448.0000000 magnetization 

 DIPCOR: dipole corrections for dipol
 direction  3 min pos     1,
 dipolmoment           0.000000      0.000000     -0.000000 electrons x Angstroem
 Tr[quadrupol]     -6114.568973

 energy correction for charged system         0.000000 eV
 dipol+quadrupol energy correction           -0.000000 eV
 added-field ion interaction          0.000000 eV  (added to PSCEN)


 Free energy of the ion-electron system (eV)
  ---------------------------------------------------
  alpha Z        PSCENC =       850.71337413
  Ewald energy   TEWEN  =    136386.27827841
  -Hartree energ DENC   =   -171875.86807271
  -exchange      EXHF   =         0.00000000
  -V(xc)+E(xc)   XCENC  =      1692.49910603
  PAW double counting   =     31934.84060886   -35728.35957167
  entropy T*S    EENTRO =        -0.00000000
  eigenvalues    EBANDS =    -11520.89843425
  atomic energy  EATOM  =     47961.67487076
  ---------------------------------------------------
  free energy    TOTEN  =      -299.11984044 eV

  energy without entropy =     -299.11984044  energy(sigma->0) =     -299.11984044


--------------------------------------------------------------------------------------------------------




--------------------------------------- Iteration      1(   5)  ---------------------------------------


    TRIAL :  cpu time      1.5257: real time      1.5260
    CORREC:  cpu time      0.0003: real time      0.0003
    CHARGE:  cpu time      0.1129: real time      0.1129
    --------------------------------------------
      LOOP:  cpu time      1.6436: real time      1.6523

 eigenvalue-minimisations  :  2240
 total energy-change (2. order) :-0.7557387E-01  (-0.7557110E-01)
 number of electron     448.0000540 magnetization 
 augmentation part      159.7428427 magnetization 

 DIPCOR: dipole corrections for dipol
 direction  3 min pos     1,
 dipolmoment           0.000000      0.000000     -0.000000 electrons x Angstroem
 Tr[quadrupol]     -6114.568973

 energy correction for charged system         0.000000 eV
 dipol+quadrupol energy correction           -0.000000 eV
 added-field ion interaction          0.000000 eV  (added to PSCEN)


 Free energy of the ion-electron system (eV)
  ---------------------------------------------------
  alpha Z        PSCENC =       850.71337413
  Ewald energy   TEWEN  =    136386.27827841
  -Hartree energ DENC   =   -171875.86807271
  -exchange      EXHF   =         0.00000000
  -V(xc)+E(xc)   XCENC  =      1692.49910603
  PAW double counting   =     31934.84060886   -35728.35957167
  entropy T*S    EENTRO =        -0.00000000
  eigenvalues    EBANDS =    -11520.97400812
  atomic energy  EATOM  =     47961.67487076
  ---------------------------------------------------
  free energy    TOTEN  =      -299.19541431 eV

  energy without entropy =     -299.19541431  energy(sigma->0) =     -299.19541431


--------------------------------------------------------------------------------------------------------




--------------------------------------- Iteration      1(   6)  ---------------------------------------


    POTLOK:  cpu time      0.2508: real time      0.2508
    SETDIJ:  cpu time      0.1040: real time      0.1040
    TRIAL :  cpu time      0.5659: real time      0.5666
    CORREC:  cpu time      0.6725: real time      0.6725
    CHARGE:  cpu time      0.0995: real time      0.0995
    --------------------------------------------
      LOOP:  cpu time      1.7057: real time      1.7068

 eigenvalue-minimisations  :     0
 total energy-change (2. order) : 0.2036184E+03  (-0.1145410E+03)
 number of electron     448.0000467 magnetization 
 augmentation part      156.4315158 magnetization 

 DIPCOR: dipole corrections for dipol
 direction  3 min pos     1,
 dipolmoment           0.000000      0.000000     -0.002193 electrons x Angstroem
 Tr[quadrupol]     -6149.476846

 energy correction for charged system         0.000000 eV
 dipol+quadrupol energy correction           -0.000000 eV
 added-field ion interaction         -0.000000 eV  (added to PSCEN)


 Free energy of the ion-electron system (eV)
  ---------------------------------------------------
  alpha Z        PSCENC =       850.71337413
  Ewald energy   TEWEN  =    136386.27827841
  -Hartree energ DENC   =   -175936.54459577
  -exchange      EXHF   =         0.00000000
  -V(xc)+E(xc)   XCENC  =      1828.53444665
  PAW double counting   =     36204.62481992   -39964.86790147
  entropy T*S    EENTRO =        -0.00000000
  eigenvalues    EBANDS =     -7425.99026560
  atomic energy  EATOM  =     47961.67487076
  ---------------------------------------------------
  free energy    TOTEN  =       -95.57697297 eV

  energy without entropy =      -95.57697297  energy(sigma->0) =      -95.57697297


--------------------------------------------------------------------------------------------------------




--------------------------------------- Iteration      1(   7)  ---------------------------------------


    POTLOK:  cpu time      0.2475: real time      0.2476
    SETDIJ:  cpu time      0.1077: real time      0.1077
    TRIAL :  cpu time      0.5240: real time      0.5241
    CORREC:  cpu time      0.6638: real time      0.6639
    CHARGE:  cpu time      0.0993: real time      0.0993
    --------------------------------------------
      LOOP:  cpu time      1.6469: real time      1.6560

 eigenvalue-minimisations  :     0
 total energy-change (2. order) :-0.1150805E+03  (-0.8271932E+01)
 number of electron     448.0000453 magnetization 
 augmentation part      154.4064725 magnetization 

 DIPCOR: dipole corrections for dipol
 direction  3 min pos     1,
 dipolmoment           0.000000      0.000000     -0.000279 electrons x Angstroem
 Tr[quadrupol]     -6156.610999

 energy correction for charged system         0.000000 eV
 dipol+quadrupol energy correction           -0.000000 eV
 added-field ion interaction         -0.000000 eV  (added to PSCEN)


 Free energy of the ion-electron system (eV)
  ---------------------------------------------------
  alpha Z        PSCENC =       850.71337393
  Ewald energy   TEWEN  =    136386.27827841
  -Hartree energ DENC   =   -173890.05367962
  -exchange      EXHF   =         0.00000000
  -V(xc)+E(xc)   XCENC  =      1752.68908333
  PAW double counting   =     34963.56424950   -38787.08139381
  entropy T*S    EENTRO =        -0.00000000
  eigenvalues    EBANDS =     -9448.44227908
  atomic energy  EATOM  =     47961.67487076
  ---------------------------------------------------
  free energy    TOTEN  =      -210.65749657 eV

  energy without entropy =     -210.65749657  energy(sigma->0) =     -210.65749657


--------------------------------------------------------------------------------------------------------




--------------------------------------- Iteration      1(   8)  ---------------------------------------


    POTLOK:  cpu time      0.2413: real time      0.2413
    SETDIJ:  cpu time      0.1174: real time      0.1174
    TRIAL :  cpu time      0.5114: real time      0.5116
    CORREC:  cpu time      0.6850: real time      0.6852
    CHARGE:  cpu time      0.0993: real time      0.0993
    --------------------------------------------
      LOOP:  cpu time      1.6671: real time      1.6679

 eigenvalue-minimisations  :     0
 total energy-change (2. order) :-0.8303383E+01  (-0.5023038E+01)
 number of electron     448.0000443 magnetization 
 augmentation part      154.5758187 magnetization 

 DIPCOR: dipole corrections for dipol
 direction  3 min pos     1,
 dipolmoment           0.000000      0.000000      0.000505 electrons x Angstroem
 Tr[quadrupol]     -6154.550352

 energy correction for charged system         0.000000 eV
 dipol+quadrupol energy correction           -0.000000 eV
 added-field ion interaction         -0.000000 eV  (added to PSCEN)


 Free energy of the ion-electron system (eV)
  ---------------------------------------------------
  alpha Z        PSCENC =       850.71337412
  Ewald energy   TEWEN  =    136386.27827841
  -Hartree energ DENC   =   -173826.49809999
  -exchange      EXHF   =         0.00000000
  -V(xc)+E(xc)   XCENC  =      1742.37618866
  PAW double counting   =     34822.37622377   -38574.06455072
  entropy T*S    EENTRO =        -0.00000000
  eigenvalues    EBANDS =     -9581.81716427
  atomic energy  EATOM  =     47961.67487076
  ---------------------------------------------------
  free energy    TOTEN  =      -218.96087925 eV

  energy without entropy =     -218.96087925  energy(sigma->0) =     -218.96087925


--------------------------------------------------------------------------------------------------------




--------------------------------------- Iteration      1(   9)  ---------------------------------------


    POTLOK:  cpu time      0.2442: real time      0.2442
    SETDIJ:  cpu time      0.1275: real time      0.1275
    TRIAL :  cpu time      0.5098: real time      0.5100
    CORREC:  cpu time      0.6661: real time      0.6662
    CHARGE:  cpu time      0.0990: real time      0.0990
    --------------------------------------------
      LOOP:  cpu time      1.6595: real time      1.6601

 eigenvalue-minimisations  :     0
 total energy-change (2. order) :-0.4948320E+01  (-0.2074796E+01)
 number of electron     448.0000443 magnetization 
 augmentation part      154.6327998 magnetization 

 DIPCOR: dipole corrections for dipol
 direction  3 min pos     1,
 dipolmoment           0.000000      0.000000     -0.000091 electrons x Angstroem
 Tr[quadrupol]     -6147.868877

 energy correction for charged system         0.000000 eV
 dipol+quadrupol energy correction           -0.000000 eV
 added-field ion interaction         -0.000000 eV  (added to PSCEN)


 Free energy of the ion-electron system (eV)
  ---------------------------------------------------
  alpha Z        PSCENC =       850.71337411
  Ewald energy   TEWEN  =    136386.27827841
  -Hartree energ DENC   =   -173683.15221517
  -exchange      EXHF   =         0.00000000
  -V(xc)+E(xc)   XCENC  =      1741.86069484
  PAW double counting   =     34720.37658734   -38514.32334722
  entropy T*S    EENTRO =        -0.00000000
  eigenvalues    EBANDS =     -9687.33744186
  atomic energy  EATOM  =     47961.67487076
  ---------------------------------------------------
  free energy    TOTEN  =      -223.90919880 eV

  energy without entropy =     -223.90919880  energy(sigma->0) =     -223.90919880


--------------------------------------------------------------------------------------------------------




--------------------------------------- Iteration      1(  10)  ---------------------------------------


    POTLOK:  cpu time      0.2606: real time      0.2607
    SETDIJ:  cpu time      0.1052: real time      0.1052
    TRIAL :  cpu time      0.5109: real time      0.5109
    CORREC:  cpu time      0.6582: real time      0.6583
    CHARGE:  cpu time      0.0985: real time      0.0985
    --------------------------------------------
      LOOP:  cpu time      1.6469: real time      1.6478

 eigenvalue-minimisations  :     0
 total energy-change (2. order) :-0.2084197E+01  (-0.7339902E+00)
 number of electron     448.0000447 magnetization 
 augmentation part      154.5850197 magnetization 

 DIPCOR: dipole corrections for dipol
 direction  3 min pos     1,
 dipolmoment           0.000000      0.000000     -0.000045 electrons x Angstroem
 Tr[quadrupol]     -6146.990833

 energy correction for charged system         0.000000 eV
 dipol+quadrupol energy correction           -0.000000 eV
 added-field ion interaction         -0.000000 eV  (added to PSCEN)


 Free energy of the ion-electron system (eV)
  ---------------------------------------------------
  alpha Z        PSCENC =       850.71337413
  Ewald energy   TEWEN  =    136386.27827841
  -Hartree energ DENC   =   -173518.68372335
  -exchange      EXHF   =         0.00000000
  -V(xc)+E(xc)   XCENC  =      1740.22295601
  PAW double counting   =     34612.36308015   -38415.21655710
  entropy T*S    EENTRO =        -0.00000000
  eigenvalues    EBANDS =     -9843.34567525
  atomic energy  EATOM  =     47961.67487076
  ---------------------------------------------------
  free energy    TOTEN  =      -225.99339624 eV

  energy without entropy =     -225.99339624  energy(sigma->0) =     -225.99339624


--------------------------------------------------------------------------------------------------------




--------------------------------------- Iteration      1(  11)  ---------------------------------------


    POTLOK:  cpu time      0.2531: real time      0.2531
    SETDIJ:  cpu time      0.1008: real time      0.1008
    TRIAL :  cpu time      0.5096: real time      0.5098
    CORREC:  cpu time      0.6617: real time      0.6618
    CHARGE:  cpu time      0.0992: real time      0.0994
    --------------------------------------------
      LOOP:  cpu time      1.6310: real time      1.6376

 eigenvalue-minimisations  :     0
 total energy-change (2. order) :-0.7347037E+00  (-0.2310738E+00)
 number of electron     448.0000449 magnetization 
 augmentation part      154.6810489 magnetization 

 DIPCOR: dipole corrections for dipol
 direction  3 min pos     1,
 dipolmoment           0.000000      0.000000      0.000014 electrons x Angstroem
 Tr[quadrupol]     -6147.297883

 energy correction for charged system         0.000000 eV
 dipol+quadrupol energy correction           -0.000000 eV
 added-field ion interaction          0.000000 eV  (added to PSCEN)


 Free energy of the ion-electron system (eV)
  ---------------------------------------------------
  alpha Z        PSCENC =       850.71337413
  Ewald energy   TEWEN  =    136386.27827841
  -Hartree energ DENC   =   -173452.14053174
  -exchange      EXHF   =         0.00000000
  -V(xc)+E(xc)   XCENC  =      1739.03481165
  PAW double counting   =     34555.16884576   -38347.32058123
  entropy T*S    EENTRO =        -0.00000000
  eigenvalues    EBANDS =     -9920.13716764
  atomic energy  EATOM  =     47961.67487076
  ---------------------------------------------------
  free energy    TOTEN  =      -226.72809990 eV

  energy without entropy =     -226.72809990  energy(sigma->0) =     -226.72809990


--------------------------------------------------------------------------------------------------------




--------------------------------------- Iteration      1(  12)  ---------------------------------------


    POTLOK:  cpu time      0.2534: real time      0.2534
    SETDIJ:  cpu time      0.1063: real time      0.1063
    TRIAL :  cpu time      0.5105: real time      0.5105
    CORREC:  cpu time      0.6644: real time      0.6646
    CHARGE:  cpu time      0.0982: real time      0.0982
    --------------------------------------------
      LOOP:  cpu time      1.6376: real time      1.6467

 eigenvalue-minimisations  :     0
 total energy-change (2. order) :-0.2310654E+00  (-0.7440763E-01)
 number of electron     448.0000450 magnetization 
 augmentation part      154.7842385 magnetization 

 DIPCOR: dipole corrections for dipol
 direction  3 min pos     1,
 dipolmoment           0.000000      0.000000      0.000012 electrons x Angstroem
 Tr[quadrupol]     -6147.595083

 energy correction for charged system         0.000000 eV
 dipol+quadrupol energy correction           -0.000000 eV
 added-field ion interaction          0.000000 eV  (added to PSCEN)


 Free energy of the ion-electron system (eV)
  ---------------------------------------------------
  alpha Z        PSCENC =       850.71337413
  Ewald energy   TEWEN  =    136386.27827841
  -Hartree energ DENC   =   -173458.71141102
  -exchange      EXHF   =         0.00000000
  -V(xc)+E(xc)   XCENC  =      1739.16941273
  PAW double counting   =     34541.76673689   -38332.62543252
  entropy T*S    EENTRO =        -0.00000000
  eigenvalues    EBANDS =     -9915.22499471
  atomic energy  EATOM  =     47961.67487076
  ---------------------------------------------------
  free energy    TOTEN  =      -226.95916533 eV

  energy without entropy =     -226.95916533  energy(sigma->0) =     -226.95916533


--------------------------------------------------------------------------------------------------------




--------------------------------------- Iteration      1(  13)  ---------------------------------------


    POTLOK:  cpu time      0.2415: real time      0.2417
    SETDIJ:  cpu time      0.1151: real time      0.1151
    TRIAL :  cpu time      0.5111: real time      0.5111
    CORREC:  cpu time      0.6751: real time      0.6752
    CHARGE:  cpu time      0.0990: real time      0.0990
    --------------------------------------------
      LOOP:  cpu time      1.6464: real time      1.6544

 eigenvalue-minimisations  :     0
 total energy-change (2. order) :-0.7441792E-01  (-0.2866975E-01)
 number of electron     448.0000450 magnetization 
 augmentation part      154.8073909 magnetization 

 DIPCOR: dipole corrections for dipol
 direction  3 min pos     1,
 dipolmoment           0.000000      0.000000      0.000009 electrons x Angstroem
 Tr[quadrupol]     -6147.800692

 energy correction for charged system         0.000000 eV
 dipol+quadrupol energy correction           -0.000000 eV
 added-field ion interaction          0.000000 eV  (added to PSCEN)


 Free energy of the ion-electron system (eV)
  ---------------------------------------------------
  alpha Z        PSCENC =       850.71337413
  Ewald energy   TEWEN  =    136386.27827841
  -Hartree energ DENC   =   -173473.35814904
  -exchange      EXHF   =         0.00000000
  -V(xc)+E(xc)   XCENC  =      1739.41163606
  PAW double counting   =     34537.73659132   -38332.24144026
  entropy T*S    EENTRO =        -0.00000000
  eigenvalues    EBANDS =     -9897.24874464
  atomic energy  EATOM  =     47961.67487076
  ---------------------------------------------------
  free energy    TOTEN  =      -227.03358325 eV

  energy without entropy =     -227.03358325  energy(sigma->0) =     -227.03358325


--------------------------------------------------------------------------------------------------------




--------------------------------------- Iteration      1(  14)  ---------------------------------------


    POTLOK:  cpu time      0.2562: real time      0.2563
    SETDIJ:  cpu time      0.1024: real time      0.1024
    TRIAL :  cpu time      0.5094: real time      0.5096
    CORREC:  cpu time      0.6584: real time      0.6584
    CHARGE:  cpu time      0.0984: real time      0.0985
    --------------------------------------------
      LOOP:  cpu time      1.6287: real time      1.6385

 eigenvalue-minimisations  :     0
 total energy-change (2. order) :-0.2867438E-01  (-0.1216725E-01)
 number of electron     448.0000450 magnetization 
 augmentation part      154.7925021 magnetization 

 DIPCOR: dipole corrections for dipol
 direction  3 min pos     1,
 dipolmoment           0.000000      0.000000     -0.000008 electrons x Angstroem
 Tr[quadrupol]     -6148.022728

 energy correction for charged system         0.000000 eV
 dipol+quadrupol energy correction           -0.000000 eV
 added-field ion interaction         -0.000000 eV  (added to PSCEN)


 Free energy of the ion-electron system (eV)
  ---------------------------------------------------
  alpha Z        PSCENC =       850.71337413
  Ewald energy   TEWEN  =    136386.27827841
  -Hartree energ DENC   =   -173479.98008889
  -exchange      EXHF   =         0.00000000
  -V(xc)+E(xc)   XCENC  =      1739.41661864
  PAW double counting   =     34535.91252263   -38331.43047806
  entropy T*S    EENTRO =        -0.00000000
  eigenvalues    EBANDS =     -9889.64735525
  atomic energy  EATOM  =     47961.67487076
  ---------------------------------------------------
  free energy    TOTEN  =      -227.06225763 eV

  energy without entropy =     -227.06225763  energy(sigma->0) =     -227.06225763


--------------------------------------------------------------------------------------------------------




--------------------------------------- Iteration      1(  15)  ---------------------------------------


    POTLOK:  cpu time      0.2536: real time      0.2536
    SETDIJ:  cpu time      0.1099: real time      0.1099
    TRIAL :  cpu time      0.5114: real time      0.5114
    CORREC:  cpu time      0.6522: real time      0.6524
    CHARGE:  cpu time      0.0988: real time      0.0988
    --------------------------------------------
      LOOP:  cpu time      1.6318: real time      1.6395

 eigenvalue-minimisations  :     0
 total energy-change (2. order) :-0.1217043E-01  (-0.5111656E-02)
 number of electron     448.0000450 magnetization 
 augmentation part      154.7839146 magnetization 

 DIPCOR: dipole corrections for dipol
 direction  3 min pos     1,
 dipolmoment           0.000000      0.000000     -0.000015 electrons x Angstroem
 Tr[quadrupol]     -6148.211102

 energy correction for charged system         0.000000 eV
 dipol+quadrupol energy correction           -0.000000 eV
 added-field ion interaction          0.000000 eV  (added to PSCEN)


 Free energy of the ion-electron system (eV)
  ---------------------------------------------------
  alpha Z        PSCENC =       850.71337413
  Ewald energy   TEWEN  =    136386.27827841
  -Hartree energ DENC   =   -173488.02513830
  -exchange      EXHF   =         0.00000000
  -V(xc)+E(xc)   XCENC  =      1739.48055126
  PAW double counting   =     34539.95102496   -38334.43248025
  entropy T*S    EENTRO =        -0.00000000
  eigenvalues    EBANDS =     -9882.71490903
  atomic energy  EATOM  =     47961.67487076
  ---------------------------------------------------
  free energy    TOTEN  =      -227.07442806 eV

  energy without entropy =     -227.07442806  energy(sigma->0) =     -227.07442806


--------------------------------------------------------------------------------------------------------




--------------------------------------- Iteration      1(  16)  ---------------------------------------


    POTLOK:  cpu time      0.2566: real time      0.2566
    SETDIJ:  cpu time      0.1070: real time      0.1071
    TRIAL :  cpu time      0.5090: real time      0.5091
    CORREC:  cpu time      0.6650: real time      0.6651
    CHARGE:  cpu time      0.0983: real time      0.0984
    --------------------------------------------
      LOOP:  cpu time      1.6407: real time      1.6488

 eigenvalue-minimisations  :     0
 total energy-change (2. order) :-0.5109594E-02  (-0.1784931E-02)
 number of electron     448.0000449 magnetization 
 augmentation part      154.7825545 magnetization 

 DIPCOR: dipole corrections for dipol
 direction  3 min pos     1,
 dipolmoment           0.000000      0.000000     -0.000004 electrons x Angstroem
 Tr[quadrupol]     -6148.292465

 energy correction for charged system         0.000000 eV
 dipol+quadrupol energy correction           -0.000000 eV
 added-field ion interaction         -0.000000 eV  (added to PSCEN)


 Free energy of the ion-electron system (eV)
  ---------------------------------------------------
  alpha Z        PSCENC =       850.71337413
  Ewald energy   TEWEN  =    136386.27827841
  -Hartree energ DENC   =   -173495.64801429
  -exchange      EXHF   =         0.00000000
  -V(xc)+E(xc)   XCENC  =      1739.60123442
  PAW double counting   =     34545.88443019   -38339.90356202
  entropy T*S    EENTRO =        -0.00000000
  eigenvalues    EBANDS =     -9875.68014926
  atomic energy  EATOM  =     47961.67487076
  ---------------------------------------------------
  free energy    TOTEN  =      -227.07953765 eV

  energy without entropy =     -227.07953765  energy(sigma->0) =     -227.07953765


--------------------------------------------------------------------------------------------------------




--------------------------------------- Iteration      1(  17)  ---------------------------------------


    POTLOK:  cpu time      0.2550: real time      0.2551
    SETDIJ:  cpu time      0.0976: real time      0.0976
    TRIAL :  cpu time      0.5088: real time      0.5090
    CORREC:  cpu time      0.6556: real time      0.6556
    CHARGE:  cpu time      0.0985: real time      0.0985
    --------------------------------------------
      LOOP:  cpu time      1.6295: real time      1.6300

 eigenvalue-minimisations  :     0
 total energy-change (2. order) :-0.1781251E-02  (-0.6150536E-03)
 number of electron     448.0000449 magnetization 
 augmentation part      154.7825252 magnetization 

 DIPCOR: dipole corrections for dipol
 direction  3 min pos     1,
 dipolmoment           0.000000      0.000000      0.000003 electrons x Angstroem
 Tr[quadrupol]     -6148.292032

 energy correction for charged system         0.000000 eV
 dipol+quadrupol energy correction           -0.000000 eV
 added-field ion interaction         -0.000000 eV  (added to PSCEN)


 Free energy of the ion-electron system (eV)
  ---------------------------------------------------
  alpha Z        PSCENC =       850.71337413
  Ewald energy   TEWEN  =    136386.27827841
  -Hartree energ DENC   =   -173497.32755537
  -exchange      EXHF   =         0.00000000
  -V(xc)+E(xc)   XCENC  =      1739.62333422
  PAW double counting   =     34548.61794958   -38342.88464100
  entropy T*S    EENTRO =        -0.00000000
  eigenvalues    EBANDS =     -9873.77692962
  atomic energy  EATOM  =     47961.67487076
  ---------------------------------------------------
  free energy    TOTEN  =      -227.08131890 eV

  energy without entropy =     -227.08131890  energy(sigma->0) =     -227.08131890


--------------------------------------------------------------------------------------------------------




--------------------------------------- Iteration      1(  18)  ---------------------------------------


    POTLOK:  cpu time      0.2449: real time      0.2451
    SETDIJ:  cpu time      0.1144: real time      0.1144
    TRIAL :  cpu time      0.5106: real time      0.5106
    CORREC:  cpu time      0.6791: real time      0.6793
    CHARGE:  cpu time      0.0994: real time      0.0994
    --------------------------------------------
      LOOP:  cpu time      1.6544: real time      1.6624

 eigenvalue-minimisations  :     0
 total energy-change (2. order) :-0.6132326E-03  (-0.2147903E-03)
 number of electron     448.0000449 magnetization 
 augmentation part      154.7827823 magnetization 

 DIPCOR: dipole corrections for dipol
 direction  3 min pos     1,
 dipolmoment           0.000000      0.000000     -0.000000 electrons x Angstroem
 Tr[quadrupol]     -6148.275174

 energy correction for charged system         0.000000 eV
 dipol+quadrupol energy correction           -0.000000 eV
 added-field ion interaction         -0.000000 eV  (added to PSCEN)


 Free energy of the ion-electron system (eV)
  ---------------------------------------------------
  alpha Z        PSCENC =       850.71337413
  Ewald energy   TEWEN  =    136386.27827841
  -Hartree energ DENC   =   -173497.03257150
  -exchange      EXHF   =         0.00000000
  -V(xc)+E(xc)   XCENC  =      1739.62321496
  PAW double counting   =     34550.24078334   -38344.60488874
  entropy T*S    EENTRO =        -0.00000000
  eigenvalues    EBANDS =     -9873.97499349
  atomic energy  EATOM  =     47961.67487076
  ---------------------------------------------------
  free energy    TOTEN  =      -227.08193214 eV

  energy without entropy =     -227.08193214  energy(sigma->0) =     -227.08193214


--------------------------------------------------------------------------------------------------------




--------------------------------------- Iteration      1(  19)  ---------------------------------------


    POTLOK:  cpu time      0.2498: real time      0.2498
    SETDIJ:  cpu time      0.1174: real time      0.1177
    TRIAL :  cpu time      0.5091: real time      0.5091
    CORREC:  cpu time      0.6566: real time      0.6568
    CHARGE:  cpu time      0.0986: real time      0.0986
    --------------------------------------------
      LOOP:  cpu time      1.6444: real time      1.6450

 eigenvalue-minimisations  :     0
 total energy-change (2. order) :-0.2150745E-03  (-0.8178906E-04)
 number of electron     448.0000450 magnetization 
 augmentation part      154.7823181 magnetization 

 DIPCOR: dipole corrections for dipol
 direction  3 min pos     1,
 dipolmoment           0.000000      0.000000     -0.000002 electrons x Angstroem
 Tr[quadrupol]     -6148.250683

 energy correction for charged system         0.000000 eV
 dipol+quadrupol energy correction           -0.000000 eV
 added-field ion interaction          0.000000 eV  (added to PSCEN)


 Free energy of the ion-electron system (eV)
  ---------------------------------------------------
  alpha Z        PSCENC =       850.71337413
  Ewald energy   TEWEN  =    136386.27827841
  -Hartree energ DENC   =   -173496.62386926
  -exchange      EXHF   =         0.00000000
  -V(xc)+E(xc)   XCENC  =      1739.63580043
  PAW double counting   =     34551.13281007   -38345.41212508
  entropy T*S    EENTRO =        -0.00000000
  eigenvalues    EBANDS =     -9874.48128667
  atomic energy  EATOM  =     47961.67487076
  ---------------------------------------------------
  free energy    TOTEN  =      -227.08214721 eV

  energy without entropy =     -227.08214721  energy(sigma->0) =     -227.08214721


--------------------------------------------------------------------------------------------------------




--------------------------------------- Iteration      1(  20)  ---------------------------------------


    POTLOK:  cpu time      0.2570: real time      0.2570
    SETDIJ:  cpu time      0.1040: real time      0.1040
    TRIAL :  cpu time      0.5097: real time      0.5099
    CORREC:  cpu time      0.6706: real time      0.6706
    CHARGE:  cpu time      0.0985: real time      0.0985
    --------------------------------------------
      LOOP:  cpu time      1.6446: real time      1.6537

 eigenvalue-minimisations  :     0
 total energy-change (2. order) :-0.8197584E-04  (-0.2694729E-04)
 number of electron     448.0000450 magnetization 
 augmentation part      154.7820814 magnetization 

 DIPCOR: dipole corrections for dipol
 direction  3 min pos     1,
 dipolmoment           0.000000      0.000000      0.000001 electrons x Angstroem
 Tr[quadrupol]     -6148.231075

 energy correction for charged system         0.000000 eV
 dipol+quadrupol energy correction           -0.000000 eV
 added-field ion interaction          0.000000 eV  (added to PSCEN)


 Free energy of the ion-electron system (eV)
  ---------------------------------------------------
  alpha Z        PSCENC =       850.71337413
  Ewald energy   TEWEN  =    136386.27827841
  -Hartree energ DENC   =   -173495.63377163
  -exchange      EXHF   =         0.00000000
  -V(xc)+E(xc)   XCENC  =      1739.62930323
  PAW double counting   =     34550.70123948   -38344.93707093
  entropy T*S    EENTRO =        -0.00000000
  eigenvalues    EBANDS =     -9875.50845265
  atomic energy  EATOM  =     47961.67487076
  ---------------------------------------------------
  free energy    TOTEN  =      -227.08222919 eV

  energy without entropy =     -227.08222919  energy(sigma->0) =     -227.08222919


--------------------------------------------------------------------------------------------------------




--------------------------------------- Iteration      1(  21)  ---------------------------------------


    POTLOK:  cpu time      0.2463: real time      0.2466
    SETDIJ:  cpu time      0.1060: real time      0.1060
    TRIAL :  cpu time      0.5090: real time      0.5090
    CORREC:  cpu time      0.6689: real time      0.6690
    CHARGE:  cpu time      0.0983: real time      0.0983
    --------------------------------------------
      LOOP:  cpu time      1.6417: real time      1.6422

 eigenvalue-minimisations  :     0
 total energy-change (2. order) :-0.2678580E-04  (-0.7978376E-05)
 number of electron     448.0000450 magnetization 
 augmentation part      154.7823885 magnetization 

 DIPCOR: dipole corrections for dipol
 direction  3 min pos     1,
 dipolmoment           0.000000      0.000000      0.000001 electrons x Angstroem
 Tr[quadrupol]     -6148.226594

 energy correction for charged system         0.000000 eV
 dipol+quadrupol energy correction           -0.000000 eV
 added-field ion interaction         -0.000000 eV  (added to PSCEN)


 Free energy of the ion-electron system (eV)
  ---------------------------------------------------
  alpha Z        PSCENC =       850.71337413
  Ewald energy   TEWEN  =    136386.27827841
  -Hartree energ DENC   =   -173495.01867931
  -exchange      EXHF   =         0.00000000
  -V(xc)+E(xc)   XCENC  =      1739.61958796
  PAW double counting   =     34550.01647781   -38344.26591833
  entropy T*S    EENTRO =        -0.00000000
  eigenvalues    EBANDS =     -9876.10024739
  atomic energy  EATOM  =     47961.67487076
  ---------------------------------------------------
  free energy    TOTEN  =      -227.08225597 eV

[...]
    302       8.5819      0.00000
    303       8.5819      0.00000
    304       8.5819      0.00000
    305       8.7405      0.00000
    306       8.7412      0.00000
    307       8.7431      0.00000
    308       8.7438      0.00000
    309       8.8308      0.00000
    310       8.8314      0.00000
    311       8.8318      0.00000
    312       8.8319      0.00000
    313       9.0118      0.00000
    314       9.0118      0.00000
    315       9.0118      0.00000
    316       9.0119      0.00000
    317       9.7753      0.00000
    318       9.7882      0.00000
    319       9.7990      0.00000
    320       9.8037      0.00000


--------------------------------------------------------------------------------------------------------


 soft charge-density along one line, spin component           1
         0         1         2         3         4         5         6         7         8         9
 total charge-density along one line

 pseudopotential strength for first ion, spin component:           1
-52.305  -0.000  -0.000   7.492   0.000   0.000  -0.000   0.000
 -0.000 -52.355  -0.000   0.000   7.518   0.000  -0.030   0.076
 -0.000  -0.000 -52.305   0.000   0.000   7.492   0.000  -0.000
  7.492   0.000   0.000   4.204  -0.000   0.000  -0.000   0.000
  0.000   7.518   0.000  -0.000   4.213  -0.000  -0.004   0.008
  0.000   0.000   7.492   0.000  -0.000   4.204   0.000  -0.000
 -0.000  -0.030   0.000  -0.000  -0.004   0.000   3.009 -11.104
  0.000   0.076  -0.000   0.000   0.008  -0.000 -11.104  46.304
 -0.000   0.000   0.000   0.000  -0.000  -0.000   0.000  -0.000
  0.008   0.000   0.000  -0.008  -0.000  -0.000   0.000  -0.000
 -0.000   0.008   0.000   0.000  -0.018  -0.000   0.010  -0.020
  0.000  -0.000   0.008  -0.000   0.000  -0.008   0.000  -0.000
 -0.000   0.000  -0.000   0.000   0.000   0.000  -0.000   0.000
 total augmentation occupancy for first ion, spin component:           1
  1.999   0.000   0.000  -0.012   0.000  -0.000   0.000   0.000  -0.000  -0.007   0.000  -0.000  -0.000
  0.000   2.000  -0.000   0.000  -0.006   0.000  -0.001   0.004  -0.000  -0.000  -0.013  -0.000  -0.000
  0.000  -0.000   1.999  -0.000   0.000  -0.012  -0.000   0.000   0.000   0.000   0.000  -0.007   0.000
 -0.012   0.000  -0.000   0.071  -0.000   0.000   0.000  -0.000  -0.000   0.001  -0.000   0.000   0.000
  0.000  -0.006   0.000  -0.000   0.044  -0.000   0.034   0.001  -0.000   0.000   0.024   0.000   0.000
 -0.000   0.000  -0.012   0.000  -0.000   0.071   0.000  -0.000   0.000  -0.000   0.000   0.001  -0.000
  0.000  -0.001  -0.000   0.000   0.034   0.000   0.779   0.010   0.000  -0.000  -0.035  -0.000  -0.000
  0.000   0.004   0.000  -0.000   0.001  -0.000   0.010   0.000  -0.000   0.000  -0.000  -0.000  -0.000
 -0.000  -0.000   0.000  -0.000  -0.000   0.000   0.000  -0.000   0.012   0.000  -0.000  -0.000   0.000
 -0.007  -0.000   0.000   0.001   0.000  -0.000  -0.000   0.000   0.000   0.010  -0.000   0.000  -0.000
  0.000  -0.013   0.000  -0.000   0.024   0.000  -0.035  -0.000  -0.000  -0.000   0.028   0.000  -0.000
 -0.000  -0.000  -0.007   0.000   0.000   0.001  -0.000  -0.000  -0.000   0.000   0.000   0.010  -0.000
 -0.000  -0.000   0.000   0.000   0.000  -0.000  -0.000  -0.000   0.000  -0.000  -0.000  -0.000   0.047


------------------------ aborting loop because EDIFF is reached ----------------------------------------


    FORLOC:  cpu time      0.0021: real time      0.0021
    FORNL :  cpu time      0.2937: real time      0.2937
    STRESS:  cpu time      0.8969: real time      0.8970
    FORCOR:  cpu time      0.2449: real time      0.2449
    OFIELD:  cpu time      0.0000: real time      0.0000

  FORCE on cell =-STRESS in cart. coord.  units (eV):
  Direction    XX          YY          ZZ          XY          YZ          ZX
  --------------------------------------------------------------------------------------
  Alpha Z   850.71337   850.71337   850.71337
  Ewald  156226.70537156226.70537************    -0.00000    -0.00000     0.00000
  Hartree166330.40357166330.40357************    -0.00000    -0.00000    -0.00000
  E(xc)   -2518.32216 -2518.32216 -2520.80209     0.00000    -0.00000     0.00000
  Local  ************************332451.02029     0.00000    -0.00000    -0.00000
  n-local -2815.31003 -2816.18621 -2834.34369     0.00000    -0.00000    -0.00001
  augment  1078.46347  1078.46346  1069.78891    -0.00000     0.00000     0.00000
  Kinetic  7304.42906  7307.18508  7343.86724     0.00000     0.00000     0.00001
  Fock        0.00000     0.00000     0.00000     0.00000     0.00000     0.00000
  -------------------------------------------------------------------------------------
  Total     -30.70533   -30.70533    -2.58946     0.00000     0.00000    -0.00000
  in kB     -31.46145   -31.46145    -2.65323     0.00000     0.00000    -0.00000
  external pressure =      -21.86 kB  Pullay stress =        0.00 kB


 VOLUME and BASIS-vectors are now :
 -----------------------------------------------------------------------------
  energy-cutoff  :      600.00
  volume of cell :     1563.67
      direct lattice vectors                 reciprocal lattice vectors
     8.546113626  0.000000000  0.000000000     0.117012252  0.000000000  0.000000000
     0.000000000  8.546113626  0.000000000     0.000000000  0.117012252  0.000000000
     0.000000000  0.000000000 21.409585219     0.000000000  0.000000000  0.046708051

  length of vectors
     8.546113626  8.546113626 21.409585219     0.117012252  0.117012252  0.046708051


 FORCES acting on ions:
    Electron-Ion                     Ewald-Force                    Non-Local-Force
 -----------------------------------------------------------------------------------------------
   -.231E-13 0.142E-11 0.201E+04   0.888E-14 0.720E-13 -.200E+04   -.517E-24 -.620E-24 -.641E+01
   0.320E-12 -.466E-13 0.201E+04   -.148E-13 0.164E-13 -.200E+04   -.414E-24 -.207E-24 -.641E+01
   -.426E-13 -.326E-12 0.664E+03   0.320E-13 0.000E+00 -.665E+03   -.331E-23 -.331E-23 0.448E+00
   0.364E-12 0.499E-13 0.664E+03   -.133E-13 0.989E-14 -.665E+03   0.827E-24 -.434E-23 0.448E+00
   -.540E-13 0.115E-11 -.669E+03   0.533E-14 -.570E-13 0.669E+03   0.265E-22 0.205E-22 -.275E+00
   0.370E-12 0.200E-13 -.669E+03   0.243E-13 0.107E-13 0.669E+03   0.199E-22 -.596E-22 -.275E+00
   -.462E-13 0.210E-12 -.199E+04   0.533E-13 -.249E-13 0.199E+04   0.993E-23 -.496E-23 0.562E+01
   0.291E-12 0.119E-11 -.199E+04   0.566E-13 0.253E-13 0.199E+04   -.290E-23 -.165E-23 0.562E+01
   -.142E-13 0.412E-12 0.201E+04   0.160E-13 0.160E-13 -.200E+04   -.207E-24 -.517E-24 -.641E+01
   0.321E-12 0.114E-11 0.201E+04   -.218E-13 0.728E-13 -.200E+04   0.620E-24 0.556E-24 -.641E+01
   -.410E-13 0.562E-12 0.664E+03   0.711E-14 0.355E-13 -.665E+03   -.165E-23 0.827E-24 0.448E+00
   0.369E-12 -.190E-12 0.664E+03   -.805E-13 0.566E-13 -.665E+03   -.827E-23 -.258E-24 0.448E+00
   -.355E-13 0.389E-12 -.669E+03   0.284E-13 0.466E-15 0.669E+03   -.397E-22 -.199E-22 -.275E+00
   0.370E-12 0.144E-11 -.669E+03   -.280E-13 0.107E-13 0.669E+03   -.265E-22 0.000E+00 -.275E+00
   -.605E-13 0.107E-11 -.199E+04   0.888E-13 0.142E-13 0.199E+04   -.496E-23 0.000E+00 0.562E+01
   0.291E-12 0.116E-12 -.199E+04   -.305E-13 -.359E-13 0.199E+04   -.434E-23 0.331E-23 0.562E+01
   0.911E-12 0.342E-11 0.201E+04   -.222E-13 0.694E-13 -.200E+04   0.827E-24 0.414E-24 -.641E+01
   0.120E-11 -.366E-13 0.201E+04   -.110E-13 0.151E-13 -.200E+04   -.827E-24 0.291E-24 -.641E+01
   0.811E-12 -.336E-12 0.664E+03   -.355E-14 -.355E-14 -.665E+03   0.331E-23 -.331E-23 0.448E+00
   0.117E-11 0.335E-11 0.664E+03   -.320E-13 0.326E-13 -.665E+03   -.331E-23 -.165E-23 0.448E+00
   0.820E-12 0.718E-12 -.669E+03   -.355E-14 -.151E-15 0.669E+03   0.761E-22 -.993E-23 -.275E+00
   0.121E-11 0.266E-13 -.669E+03   -.443E-13 0.284E-13 0.669E+03   0.165E-23 -.397E-22 -.275E+00
   0.892E-12 0.219E-12 -.199E+04   -.213E-13 -.284E-13 0.199E+04   -.165E-23 0.165E-23 0.562E+01
   0.117E-11 0.232E-11 -.199E+04   0.162E-15 0.115E-13 0.199E+04   -.310E-23 -.331E-23 0.562E+01
   0.904E-12 -.885E-12 0.201E+04   -.417E-13 0.158E-13 -.200E+04   -.620E-24 -.258E-25 -.641E+01
   0.119E-11 -.151E-11 0.201E+04   -.713E-13 0.711E-13 -.200E+04   0.000E+00 -.646E-24 -.641E+01
   0.812E-12 0.452E-12 0.664E+03   -.355E-13 0.355E-13 -.665E+03   0.446E-23 0.827E-24 0.448E+00
   0.117E-11 0.226E-11 0.664E+03   -.498E-13 0.247E-13 -.665E+03   0.414E-23 -.331E-23 0.448E+00
   0.796E-12 0.363E-12 -.669E+03   0.000E+00 0.289E-13 0.669E+03   0.331E-22 0.000E+00 -.275E+00
   0.120E-11 -.440E-11 -.669E+03   -.564E-13 0.000E+00 0.669E+03   -.662E-23 -.265E-22 -.275E+00
   0.917E-12 0.748E-12 -.199E+04   -.604E-13 0.355E-13 0.199E+04   0.662E-23 0.124E-23 0.562E+01
   0.118E-11 0.206E-12 -.199E+04   0.688E-14 -.320E-13 0.199E+04   -.165E-23 0.331E-23 0.562E+01
   -.653E-13 0.530E-12 0.498E+03   0.426E-13 -.261E-13 -.498E+03   0.765E-23 0.414E-23 -.759E-01
   0.109E-12 -.915E-13 0.498E+03   0.102E-13 -.799E-13 -.498E+03   -.372E-23 -.827E-24 -.759E-01
   -.409E-13 -.532E-12 0.151E+04   0.364E-13 -.298E-13 -.151E+04   0.215E-23 -.620E-23 0.357E+01
   0.801E-13 -.539E-12 0.151E+04   0.791E-13 -.669E-14 -.151E+04   0.207E-23 0.372E-23 0.357E+01
   -.657E-13 0.122E-11 -.151E+04   0.771E-12 0.804E-12 0.152E+04   -.343E-22 0.662E-23 -.487E+01
   0.615E-13 0.539E-12 -.151E+04   -.795E-12 -.798E-12 0.152E+04   0.165E-23 -.827E-23 -.487E+01
   -.422E-13 -.314E-12 -.497E+03   0.824E-11 -.814E-11 0.497E+03   -.258E-21 0.000E+00 0.259E+00
   0.134E-12 -.436E-12 -.497E+03   -.812E-11 0.815E-11 0.497E+03   -.291E-21 -.119E-21 0.259E+00
   -.408E-13 0.211E-12 0.498E+03   -.155E-11 0.900E-11 -.498E+03   0.290E-23 -.248E-23 -.759E-01
   0.134E-12 0.700E-12 0.498E+03   0.162E-11 -.900E-11 -.498E+03   0.641E-23 -.248E-23 -.759E-01
   -.347E-13 0.133E-13 0.151E+04   0.813E-13 -.275E-13 -.151E+04   0.186E-23 -.372E-23 0.357E+01
   0.750E-13 -.632E-12 0.151E+04   0.192E-13 -.151E-13 -.151E+04   0.905E-23 0.827E-24 0.357E+01
   -.564E-13 0.811E-12 -.151E+04   0.159E-11 0.622E-13 0.152E+04   -.132E-22 0.182E-22 -.487E+01
   0.637E-13 -.166E-12 -.151E+04   -.165E-11 0.799E-14 0.152E+04   0.993E-23 -.496E-23 -.487E+01
   -.573E-13 -.549E-13 -.497E+03   0.898E-11 -.142E-13 0.497E+03   -.265E-22 0.298E-22 0.259E+00
   0.132E-12 -.239E-12 -.497E+03   -.891E-11 -.718E-14 0.497E+03   -.318E-21 0.265E-21 0.259E+00
   0.313E-12 0.811E-12 0.498E+03   0.106E-10 -.624E-13 -.498E+03   0.355E-23 -.331E-23 -.759E-01
   0.480E-12 -.153E-12 0.498E+03   -.105E-10 -.853E-13 -.498E+03   -.414E-24 -.248E-23 -.759E-01
   0.375E-12 -.525E-12 0.151E+04   0.751E-13 -.302E-13 -.151E+04   -.372E-23 -.414E-23 0.357E+01
   0.494E-12 -.152E-11 0.151E+04   -.129E-13 -.104E-13 -.151E+04   -.558E-23 0.248E-23 0.357E+01
   0.370E-12 0.944E-12 -.151E+04   -.825E-12 0.807E-12 0.152E+04   0.662E-23 0.331E-23 -.487E+01
   0.467E-12 0.519E-12 -.151E+04   0.720E-12 -.789E-12 0.152E+04   0.827E-23 0.146E-22 -.487E+01
   0.304E-12 -.296E-12 -.497E+03   -.760E-12 -.814E-11 0.497E+03   0.265E-22 0.000E+00 0.259E+00
   0.484E-12 0.276E-11 -.497E+03   0.760E-12 0.814E-11 0.497E+03   -.112E-21 -.238E-21 0.259E+00
   0.287E-12 -.836E-12 0.498E+03   0.901E-11 0.897E-11 -.498E+03   -.269E-23 -.165E-23 -.759E-01
   0.460E-12 -.146E-11 0.498E+03   -.895E-11 -.902E-11 -.498E+03   0.331E-23 0.827E-24 -.759E-01
   0.378E-12 -.106E-12 0.151E+04   0.195E-13 -.409E-13 -.151E+04   -.744E-23 0.207E-23 0.357E+01
   0.494E-12 -.113E-12 0.151E+04   0.443E-13 -.245E-13 -.151E+04   -.703E-23 0.662E-23 0.357E+01
   0.344E-12 0.698E-12 -.151E+04   -.426E-13 0.640E-13 0.152E+04   -.993E-23 0.199E-22 -.487E+01
   0.475E-12 0.193E-12 -.151E+04   -.820E-13 0.355E-14 0.152E+04   -.496E-23 0.261E-22 -.487E+01
   0.316E-12 0.649E-13 -.497E+03   0.142E-13 -.142E-13 0.497E+03   -.192E-21 -.132E-22 0.259E+00
   0.486E-12 0.241E-11 -.497E+03   -.143E-13 -.214E-13 0.497E+03   -.119E-21 -.265E-22 0.259E+00
 -----------------------------------------------------------------------------------------------
   0.262E-10 0.202E-10 0.138E+02   0.139E-12 0.161E-12 -.887E-11   -.124E-20 -.185E-21 -.138E+02


 POSITION                                       TOTAL-FORCE (eV/Angst)
 -----------------------------------------------------------------------------------
      0.00000      6.40959      7.50000         0.000000     -0.000000      0.315475
      2.13653      0.00000      7.50000         0.000000     -0.000000      0.315475
      0.00000      0.00000      9.63653        -0.000000     -0.000000      0.027363
      2.13653      6.40959      9.63653        -0.000000      0.000000      0.027363
      0.00000      6.40959     11.78433         0.000000     -0.000000      0.003315
      2.13653      0.00000     11.78433         0.000000     -0.000000      0.003315
     -0.00000     -0.00000     13.90934         0.000000     -0.000000     -0.001784
      2.13653      6.40959     13.90934         0.000000      0.000000     -0.001784
      0.00000      2.13653      7.50000         0.000000      0.000000      0.315475
      2.13653      4.27306      7.50000         0.000000      0.000000      0.315475
      0.00000      4.27306      9.63653        -0.000000      0.000000      0.027363
      2.13653      2.13653      9.63653        -0.000000     -0.000000      0.027363
      0.00000      2.13653     11.78433         0.000000     -0.000000      0.003315
      2.13653      4.27306     11.78433         0.000000      0.000000      0.003315
      0.00000      4.27306     13.90934        -0.000000     -0.000000     -0.001784
      2.13653      2.13653     13.90934         0.000000     -0.000000     -0.001784
      4.27306      6.40959      7.50000         0.000000      0.000000      0.315475
      6.40959      0.00000      7.50000        -0.000000      0.000000      0.315475
      4.27306      0.00000      9.63653        -0.000000     -0.000000      0.027363
      6.40959      6.40959      9.63653         0.000000      0.000000      0.027363
      4.27306      6.40959     11.78433         0.000000      0.000000      0.003315
      6.40959      0.00000     11.78433         0.000000      0.000000      0.003315
      4.27306     -0.00000     13.90934         0.000000     -0.000000     -0.001784
      6.40959      6.40959     13.90934         0.000000     -0.000000     -0.001784
      4.27306      2.13653      7.50000        -0.000000      0.000000      0.315475
      6.40959      4.27306      7.50000         0.000000      0.000000      0.315475
      4.27306      4.27306      9.63653         0.000000      0.000000      0.027363
      6.40959      2.13653      9.63653        -0.000000     -0.000000      0.027363
      4.27306      2.13653     11.78433         0.000000     -0.000000      0.003315
      6.40959      4.27306     11.78433        -0.000000     -0.000000      0.003315
      4.27306      4.27306     13.90934         0.000000     -0.000000     -0.001784
      6.40959      2.13653     13.90934         0.000000      0.000000     -0.001784
      0.00000      6.40959      9.63653        -0.000000     -0.000000      0.053321
      2.13653      0.00000      9.63653         0.000000     -0.000000      0.053321
      0.00000      0.00000      7.50000         0.000000     -0.000000     -0.397884
      2.13653      6.40959      7.50000        -0.000000     -0.000000     -0.397884
     -0.00000      6.40959     13.94813         0.000000      0.000000      0.003137
      2.13653      0.00000     13.94813        -0.000000     -0.000000      0.003137
     -0.00000     -0.00000     11.77868        -0.000000      0.000000     -0.002944
      2.13653      6.40959     11.77868        -0.000000     -0.000000     -0.002944
      0.00000      2.13653      9.63653        -0.000000      0.000000      0.053321
      2.13653      4.27306      9.63653         0.000000     -0.000000      0.053321
      0.00000      4.27306      7.50000        -0.000000     -0.000000     -0.397884
      2.13653      2.13653      7.50000         0.000000      0.000000     -0.397884
      0.00000      2.13653     13.94813         0.000000     -0.000000      0.003137
      2.13653      4.27306     13.94813         0.000000      0.000000      0.003137
     -0.00000      4.27306     11.77868        -0.000000      0.000000     -0.002944
      2.13653      2.13653     11.77868        -0.000000     -0.000000     -0.002944
      4.27306      6.40959      9.63653         0.000000     -0.000000      0.053321
      6.40959      0.00000      9.63653        -0.000000      0.000000      0.053321
      4.27306      0.00000      7.50000         0.000000      0.000000     -0.397884
      6.40959      6.40959      7.50000         0.000000      0.000000     -0.397884
      4.27306      6.40959     13.94813         0.000000      0.000000      0.003137
      6.40959     -0.00000     13.94813         0.000000     -0.000000      0.003137
      4.27306      0.00000     11.77868         0.000000     -0.000000     -0.002944
      6.40959      6.40959     11.77868         0.000000     -0.000000     -0.002944
      4.27306      2.13653      9.63653         0.000000      0.000000      0.053321
      6.40959      4.27306      9.63653        -0.000000     -0.000000      0.053321
      4.27306      4.27306      7.50000        -0.000000      0.000000     -0.397884
      6.40959      2.13653      7.50000        -0.000000      0.000000     -0.397884
      4.27306      2.13653     13.94813         0.000000     -0.000000      0.003137
      6.40959      4.27306     13.94813         0.000000      0.000000      0.003137
      4.27306      4.27306     11.77868        -0.000000      0.000000     -0.002944
      6.40959      2.13653     11.77868        -0.000000      0.000000     -0.002944
 -----------------------------------------------------------------------------------
    total drift:                                0.000000      0.000000     -0.007610


--------------------------------------------------------------------------------------------------------



  FREE ENERGIE OF THE ION-ELECTRON SYSTEM (eV)
  ---------------------------------------------------
  free  energy   TOTEN  =      -227.14328792 eV

  energy  without entropy=     -227.14328792  energy(sigma->0) =     -227.14328792

 d Force = 0.3020458E-04[ 0.975E-06, 0.594E-04]  d Energy = 0.2685006E-04 0.335E-05
 d Force =-0.9289722E+01[-0.929E+01,-0.929E+01]  d Ewald  =-0.9289722E+01 0.485E-08


--------------------------------------------------------------------------------------------------------


    POTLOK:  cpu time      0.3672: real time      0.3672


--------------------------------------------------------------------------------------------------------




--------------------------------------------------------------------------------------------------------


  
 reached required accuracy - stopping structural energy minimisation
     LOOP+:  cpu time     16.8417: real time     16.9029
    4ORBIT:  cpu time      0.0000: real time      0.0000

 total amount of memory used by VASP MPI-rank0    70631. kBytes
=======================================================================

   base      :      30000. kBytes
   nonl-proj :      21621. kBytes
   fftplans  :       3860. kBytes
   grid      :       5439. kBytes
   one-center:        129. kBytes
   wavefun   :       9582. kBytes

  
  
 General timing and accounting informations for this job:
 ========================================================
  
                  Total CPU time used (sec):      300.978
                            User time (sec):      298.761
                          System time (sec):        2.216
                         Elapsed time (sec):      305.853
  
                   Maximum memory used (kb):      260048.
                   Average memory used (kb):          N/A
  
                          Minor page faults:        33780
                          Major page faults:           49
                 Voluntary context switches:        12113
