 vasp.6.3.0 20Jan22 (build Apr  1 2022 16:44:48) complex                         
 executed on        HPECrayEX_GCC date 2023.05.17  21:47:36
 running  512 mpi-ranks, with    1 threads/rank
 distrk:  each k-point on  256 cores,    2 groups
 distr:  one band on NCORE=   4 cores,   64 groups


--------------------------------------------------------------------------------------------------------


 INCAR:
   SYSTEM = MgO-rocksalt
   ISMEAR = 0
   SIGMA = 0.05
   EDIFF = 1E-6
   ALGO = ALL
   ISTART = 0
   IBRION = -1
   NSW = 0
   ISYM = 2
   ISIF = 2
   EDIFFG = -0.01
   DIPOL = 0.5 0.5 0.5
   IDIPOL = 3
   LDIPOL = .TRUE.
   GGA = RE
   LUSE_VDW = .TRUE.
   AGGAC = 0.0
   ENCUT = 600
   PREC = Normal
   LASPH = .TRUE.
   LREAL = .FALSE.
   ISPIN = 1
   NELM = 200
   NELMIN = 8
   NCORE = 4
   KPAR = 2
   LWAVE = .FALSE.
   LCHARG = .FALSE.

 POTCAR:    PAW_PBE C 08Apr2002                   
 POTCAR:    PAW_PBE O 08Apr2002                   
 POTCAR:    PAW_PBE Mg_pv 13Apr2007               
 POTCAR:    PAW_PBE O 08Apr2002                   
 -----------------------------------------------------------------------------
|                                                                             |
|               ----> ADVICE to this user running VASP <----                  |
|                                                                             |
|     You have switched on vdW-DFT.                                           |
|     This routine was written and supplied by Jiri Klimes. We recommend      |
|     that you carefully read and cite the following publications:            |
|       J. Klimes, D.R. Bowler, A. Michelides                                 |
|          J. Phys.: Cond Matt. 22 022201 (2010)                              |
|       J. Klimes, D.R. Bowler, A. Michelides                                 |
|          Phys. Rev. B. 83, 195131 (2011)                                    |
|     and references therein.                                                 |
|                                                                             |
 -----------------------------------------------------------------------------

 POTCAR:    PAW_PBE C 08Apr2002                   
   SHA256 =  253f7b50bb8d59471dbedb8285d89021f4a42ed1a2c5d38a03a736e69125dd95 C/POTCAR              
   COPYR  = (c) Copyright 08Apr2002 Georg Kresse                                                    
   COPYR  = This file is part of the software VASP. Any use, copying, and all other rights are regul
   COPYR  = If you do not have a valid VASP license, you may not use, copy or distribute this file. 
   VRHFIN =C: s2p2                                                                                  
   LEXCH  = PE                                                                                      
   EATOM  =   147.1560 eV,   10.8157 Ry                                                             
                                                                                                    
   TITEL  = PAW_PBE C 08Apr2002                                                                     
   LULTRA =        F    use ultrasoft PP ?                                                          
   IUNSCR =        1    unscreen: 0-lin 1-nonlin 2-no                                               
   RPACOR =    1.200    partial core radius                                                         
   POMASS =   12.011; ZVAL   =    4.000    mass and valenz                                          
   RCORE  =    1.500    outmost cutoff radius                                                       
   RWIGS  =    1.630; RWIGS  =    0.863    wigner-seitz radius (au A)                               
   ENMAX  =  400.000; ENMIN  =  300.000 eV                                                          
   ICORE  =        2    local potential                                                             
   LCOR   =        T    correct aug charges                                                         
   LPAW   =        T    paw PP                                                                      
   EAUG   =  644.873                                                                                
   DEXC   =    0.000                                                                                
   RMAX   =    1.529    core radius for proj-oper                                                   
   RAUG   =    1.300    factor for augmentation sphere                                              
   RDEP   =    1.501    radius for radial grids                                                     
   RDEPT  =    1.300    core radius for aug-charge                                                  
                                                                                                    
   Atomic configuration                                                                             
    4 entries                                                                                       
     n  l   j            E        occ.                                                              
     1  0  0.50      -273.3789   2.0000                                                             
     2  0  0.50       -13.7508   2.0000                                                             
     2  1  0.50        -5.2854   2.0000                                                             
     3  2  1.50        -5.4423   0.0000                                                             
   Description                                                                                      
     l       E           TYP  RCUT    TYP  RCUT                                                     
     0    -13.7508458     23  1.200                                                                 
     0     -8.2022199     23  1.200                                                                 
     1     -5.2854383     23  1.500                                                                 
     1     34.0145650     23  1.500                                                                 
     2     -5.4423304      7  1.500                                                                 
  local pseudopotential read in
  partial core-charges read in
  partial kinetic energy density read in
  atomic valenz-charges read in
  non local Contribution for L=           0  read in
    real space projection operators read in
  non local Contribution for L=           0  read in
    real space projection operators read in
  non local Contribution for L=           1  read in
    real space projection operators read in
  non local Contribution for L=           1  read in
    real space projection operators read in
    PAW grid and wavefunctions read in

   number of l-projection  operators is LMAX  =           4
   number of lm-projection operators is LMMAX =           8

 POTCAR:    PAW_PBE O 08Apr2002                   
   SHA256 =  818f92134a0a090dccd8ba1447fa70422a3b330e708bb4f08108d8ae51209ddf O/POTCAR              
   COPYR  = (c) Copyright 08Apr2002 Georg Kresse                                                    
   COPYR  = This file is part of the software VASP. Any use, copying, and all other rights are regul
   COPYR  = If you do not have a valid VASP license, you may not use, copy or distribute this file. 
   VRHFIN =O: s2p4                                                                                  
   LEXCH  = PE                                                                                      
   EATOM  =   432.3788 eV,   31.7789 Ry                                                             
                                                                                                    
   TITEL  = PAW_PBE O 08Apr2002                                                                     
   LULTRA =        F    use ultrasoft PP ?                                                          
   IUNSCR =        1    unscreen: 0-lin 1-nonlin 2-no                                               
   RPACOR =    1.200    partial core radius                                                         
   POMASS =   16.000; ZVAL   =    6.000    mass and valenz                                          
   RCORE  =    1.520    outmost cutoff radius                                                       
   RWIGS  =    1.550; RWIGS  =    0.820    wigner-seitz radius (au A)                               
   ENMAX  =  400.000; ENMIN  =  300.000 eV                                                          
   ICORE  =        2    local potential                                                             
   LCOR   =        T    correct aug charges                                                         
   LPAW   =        T    paw PP                                                                      
   EAUG   =  605.392                                                                                
   DEXC   =    0.000                                                                                
   RMAX   =    1.553    core radius for proj-oper                                                   
   RAUG   =    1.300    factor for augmentation sphere                                              
   RDEP   =    1.550    radius for radial grids                                                     
   RDEPT  =    1.329    core radius for aug-charge                                                  
                                                                                                    
   Atomic configuration                                                                             
    4 entries                                                                                       
     n  l   j            E        occ.                                                              
     1  0  0.50      -514.6923   2.0000                                                             
     2  0  0.50       -23.9615   2.0000                                                             
     2  1  0.50        -9.0305   4.0000                                                             
     3  2  1.50        -9.5241   0.0000                                                             
   Description                                                                                      
     l       E           TYP  RCUT    TYP  RCUT                                                     
     0    -23.9615318     23  1.200                                                                 
     0     -9.5240782     23  1.200                                                                 
     1     -9.0304911     23  1.520                                                                 
     1      8.1634956     23  1.520                                                                 
     2     -9.5240782      7  1.500                                                                 
  local pseudopotential read in
  partial core-charges read in
  partial kinetic energy density read in
  kinetic energy density of atom read in
  atomic valenz-charges read in
  non local Contribution for L=           0  read in
    real space projection operators read in
  non local Contribution for L=           0  read in
    real space projection operators read in
  non local Contribution for L=           1  read in
    real space projection operators read in
  non local Contribution for L=           1  read in
    real space projection operators read in
    PAW grid and wavefunctions read in

   number of l-projection  operators is LMAX  =           4
   number of lm-projection operators is LMMAX =           8

 POTCAR:    PAW_PBE Mg_pv 13Apr2007               
   SHA256 =  f474ac0dd33840b9ae76c01d57fea79fdf77cdfbb07d5ade72c65f83c709b62b Mg_pv/POTCAR          
   COPYR  = (c) Copyright 13Apr2007 Georg Kresse                                                    
   COPYR  = This file is part of the software VASP. Any use, copying, and all other rights are regul
   COPYR  = If you do not have a valid VASP license, you may not use, copy or distribute this file. 
   VRHFIN =Mg: p6s2                                                                                 
   LEXCH  = PE                                                                                      
   EATOM  =  1056.7344 eV,   77.6678 Ry                                                             
                                                                                                    
   TITEL  = PAW_PBE Mg_pv 13Apr2007                                                                 
   LULTRA =        F    use ultrasoft PP ?                                                          
   IUNSCR =        1    unscreen: 0-lin 1-nonlin 2-no                                               
   RPACOR =    1.500    partial core radius                                                         
   POMASS =   24.305; ZVAL   =    8.000    mass and valenz                                          
   RCORE  =    2.000    outmost cutoff radius                                                       
   RWIGS  =    2.000; RWIGS  =    1.058    wigner-seitz radius (au A)                               
   ENMAX  =  403.929; ENMIN  =  302.947 eV                                                          
   RCLOC  =    1.506    cutoff for local pot                                                        
   LCOR   =        T    correct aug charges                                                         
   LPAW   =        T    paw PP                                                                      
   EAUG   =  758.780                                                                                
   DEXC   =    0.000                                                                                
   RMAX   =    2.045    core radius for proj-oper                                                   
   RAUG   =    1.300    factor for augmentation sphere                                              
   RDEP   =    2.025    radius for radial grids                                                     
   RDEPT  =    1.557    core radius for aug-charge                                                  
                                                                                                    
   Atomic configuration                                                                             
    5 entries                                                                                       
     n  l   j            E        occ.                                                              
     1  0  0.50     -1259.6230   2.0000                                                             
     2  0  0.50       -79.8442   2.0000                                                             
     2  1  1.50       -46.6121   6.0000                                                             
     3  0  0.50        -4.7055   2.0000                                                             
     3  2  1.50        -1.3606   0.0000                                                             
   Description                                                                                      
     l       E           TYP  RCUT    TYP  RCUT                                                     
     1    -46.6121073     23  1.600                                                                 
     1      2.7211652     23  1.600                                                                 
     0     -4.7054661     23  2.000                                                                 
     0     61.2262170     23  2.000                                                                 
     2     -1.3605826     23  2.000                                                                 
  local pseudopotential read in
  partial core-charges read in
  partial kinetic energy density read in
  atomic valenz-charges read in
  non local Contribution for L=           1  read in
    real space projection operators read in
  non local Contribution for L=           1  read in
    real space projection operators read in
  non local Contribution for L=           0  read in
    real space projection operators read in
  non local Contribution for L=           0  read in
    real space projection operators read in
  non local Contribution for L=           2  read in
    real space projection operators read in
    PAW grid and wavefunctions read in

   number of l-projection  operators is LMAX  =           5
   number of lm-projection operators is LMMAX =          13

 POTCAR:    PAW_PBE O 08Apr2002                   
   SHA256 =  818f92134a0a090dccd8ba1447fa70422a3b330e708bb4f08108d8ae51209ddf O/POTCAR              
   COPYR  = (c) Copyright 08Apr2002 Georg Kresse                                                    
   COPYR  = This file is part of the software VASP. Any use, copying, and all other rights are regul
   COPYR  = If you do not have a valid VASP license, you may not use, copy or distribute this file. 
   VRHFIN =O: s2p4                                                                                  
   LEXCH  = PE                                                                                      
   EATOM  =   432.3788 eV,   31.7789 Ry                                                             
                                                                                                    
   TITEL  = PAW_PBE O 08Apr2002                                                                     
   LULTRA =        F    use ultrasoft PP ?                                                          
   IUNSCR =        1    unscreen: 0-lin 1-nonlin 2-no                                               
   RPACOR =    1.200    partial core radius                                                         
   POMASS =   16.000; ZVAL   =    6.000    mass and valenz                                          
   RCORE  =    1.520    outmost cutoff radius                                                       
   RWIGS  =    1.550; RWIGS  =    0.820    wigner-seitz radius (au A)                               
   ENMAX  =  400.000; ENMIN  =  300.000 eV                                                          
   ICORE  =        2    local potential                                                             
   LCOR   =        T    correct aug charges                                                         
   LPAW   =        T    paw PP                                                                      
   EAUG   =  605.392                                                                                
   DEXC   =    0.000                                                                                
   RMAX   =    1.553    core radius for proj-oper                                                   
   RAUG   =    1.300    factor for augmentation sphere                                              
   RDEP   =    1.550    radius for radial grids                                                     
   RDEPT  =    1.329    core radius for aug-charge                                                  
                                                                                                    
   Atomic configuration                                                                             
    4 entries                                                                                       
     n  l   j            E        occ.                                                              
     1  0  0.50      -514.6923   2.0000                                                             
     2  0  0.50       -23.9615   2.0000                                                             
     2  1  0.50        -9.0305   4.0000                                                             
     3  2  1.50        -9.5241   0.0000                                                             
   Description                                                                                      
     l       E           TYP  RCUT    TYP  RCUT                                                     
     0    -23.9615318     23  1.200                                                                 
     0     -9.5240782     23  1.200                                                                 
     1     -9.0304911     23  1.520                                                                 
     1      8.1634956     23  1.520                                                                 
     2     -9.5240782      7  1.500                                                                 
  local pseudopotential read in
  partial core-charges read in
  partial kinetic energy density read in
  kinetic energy density of atom read in
  atomic valenz-charges read in
  non local Contribution for L=           0  read in
    real space projection operators read in
  non local Contribution for L=           0  read in
    real space projection operators read in
  non local Contribution for L=           1  read in
    real space projection operators read in
  non local Contribution for L=           1  read in
    real space projection operators read in
    PAW grid and wavefunctions read in

   number of l-projection  operators is LMAX  =           4
   number of lm-projection operators is LMMAX =           8

 -----------------------------------------------------------------------------
|                                                                             |
|               ----> ADVICE to this user running VASP <----                  |
|                                                                             |
|     You have a (more or less) 'large supercell' and for larger cells it     |
|     might be more efficient to use real-space projection operators.         |
|     Therefore, try LREAL= Auto in the INCAR file.                           |
|     Mind: For very accurate calculation, you might also keep the            |
|     reciprocal projection scheme (i.e. LREAL=.FALSE.).                      |
|                                                                             |
 -----------------------------------------------------------------------------

 -----------------------------------------------------------------------------
|                                                                             |
|               ----> ADVICE to this user running VASP <----                  |
|                                                                             |
|     You enforced a specific xc type in the INCAR file but a different       |
|     type was found in the POTCAR file.                                      |
|     I HOPE YOU KNOW WHAT YOU ARE DOING!                                     |
|                                                                             |
 -----------------------------------------------------------------------------

  PAW_PBE C 08Apr2002                   :
 energy of atom  1       EATOM= -147.1560
 kinetic energy error for atom=    0.0057 (will be added to EATOM!!)
  PAW_PBE O 08Apr2002                   :
 energy of atom  2       EATOM= -432.3788
 kinetic energy error for atom=    0.0168 (will be added to EATOM!!)
  PAW_PBE Mg_pv 13Apr2007               :
 energy of atom  3       EATOM=-1056.7344
 kinetic energy error for atom=    0.0221 (will be added to EATOM!!)
  PAW_PBE O 08Apr2002                   :
 energy of atom  4       EATOM= -432.3788
 kinetic energy error for atom=    0.0168 (will be added to EATOM!!)


 POSCAR:  C  O Mg  O
  positions in direct lattice
  No initial velocities read in
 exchange correlation table for  LEXCH =       40
   RHO(1)=    0.500       N(1)  =     2000
   RHO(2)=  100.500       N(2)  =     4000



--------------------------------------------------------------------------------------------------------


 ion  position               nearest neighbor table
   1  0.500  0.500  0.769-   2 1.15
   2  0.500  0.500  0.823-   1 1.15
   3  0.000  0.750  0.352-  35 2.11  37 2.11  38 2.11  45 2.11  54 2.11
   4  0.250  0.000  0.352-  36 2.11  37 2.11  38 2.11  46 2.11  53 2.11
   5  0.000  0.000  0.451-  37 2.11  36 2.11  35 2.11  43 2.11  52 2.11  41 2.12
   6  0.250  0.750  0.451-  38 2.11  36 2.11  35 2.11  44 2.11  51 2.11  42 2.12
   7  0.000  0.750  0.550-  49 2.11  42 2.11  58 2.11  41 2.11  35 2.12  39 2.15
   8  0.250  0.000  0.550-  57 2.11  50 2.11  42 2.11  41 2.11  36 2.12  40 2.15
   9  0.000  0.000  0.649-  39 2.11  40 2.11  47 2.11  56 2.11  41 2.11
  10  0.250  0.750  0.649-  42 2.11  40 2.11  39 2.11  48 2.11  55 2.11
  11  0.000  0.250  0.352-  43 2.11  37 2.11  45 2.11  46 2.11  62 2.11
  12  0.250  0.500  0.352-  44 2.11  38 2.11  45 2.11  46 2.11  61 2.11
  13  0.000  0.500  0.451-  45 2.11  43 2.11  44 2.11  35 2.11  60 2.11  49 2.12
  14  0.250  0.250  0.451-  46 2.11  43 2.11  44 2.11  36 2.11  59 2.11  50 2.12
  15  0.000  0.250  0.550-  49 2.11  50 2.11  66 2.11  41 2.11  43 2.12  47 2.15
  16  0.250  0.500  0.550-  65 2.11  50 2.11  42 2.11  49 2.11  44 2.13  48 2.15
  17  0.000  0.500  0.649-  48 2.10  64 2.10  49 2.11  47 2.11  39 2.11
  18  0.250  0.250  0.649-  50 2.11  47 2.11  40 2.11  48 2.11  63 2.11
  19  0.500  0.750  0.352-  51 2.11  38 2.11  53 2.11  54 2.11  61 2.11
  20  0.750  0.000  0.352-  52 2.11  37 2.11  53 2.11  54 2.11  62 2.11
  21  0.500  0.000  0.451-  53 2.11  51 2.11  52 2.11  36 2.11  59 2.11  57 2.12
  22  0.750  0.750  0.451-  54 2.11  51 2.11  52 2.11  35 2.11  60 2.11  58 2.12
  23  0.500  0.750  0.550-  65 2.11  58 2.11  42 2.11  57 2.11  51 2.13  55 2.15
  24  0.750  0.000  0.550-  57 2.11  58 2.11  66 2.11  41 2.11  52 2.12  56 2.15
  25  0.500  0.000  0.649-  55 2.10  63 2.10  57 2.11  40 2.11  56 2.11
  26  0.750  0.750  0.649-  58 2.11  56 2.11  39 2.11  55 2.11  64 2.11
  27  0.500  0.250  0.352-  59 2.11  53 2.11  46 2.11  61 2.11  62 2.11
  28  0.750  0.500  0.352-  60 2.11  54 2.11  45 2.11  61 2.11  62 2.11
  29  0.500  0.500  0.451-  61 2.11  51 2.11  59 2.11  60 2.11  44 2.11  65 2.13
  30  0.750  0.250  0.451-  62 2.11  52 2.11  59 2.11  60 2.11  43 2.11  66 2.12
  31  0.500  0.250  0.550-  65 2.11  50 2.11  66 2.11  57 2.11  59 2.13  63 2.15
  32  0.750  0.500  0.550-  65 2.11  58 2.11  66 2.11  49 2.11  60 2.13  64 2.15
  33  0.500  0.500  0.651-  48 2.12  55 2.12  63 2.12  64 2.12  65 2.14
  34  0.750  0.250  0.649-  66 2.11  56 2.11  47 2.11  64 2.11  63 2.11
  35  0.000  0.750  0.451-   3 2.11   5 2.11   6 2.11  13 2.11  22 2.11   7 2.12
  36  0.250  0.000  0.451-   4 2.11   5 2.11   6 2.11  14 2.11  21 2.11   8 2.12
  37  0.000  0.000  0.352-   5 2.11   4 2.11   3 2.11  11 2.11  20 2.11
  38  0.250  0.750  0.352-   6 2.11   4 2.11   3 2.11  12 2.11  19 2.11
  39  0.000  0.750  0.651-   9 2.11  10 2.11  26 2.11  17 2.11   7 2.15
  40  0.250  0.000  0.651-   9 2.11  10 2.11  18 2.11  25 2.11   8 2.15
  41  0.000  0.000  0.550-   9 2.11   8 2.11   7 2.11  15 2.11  24 2.11   5 2.12
  42  0.250  0.750  0.550-  10 2.11   8 2.11   7 2.11  16 2.11  23 2.11   6 2.12
  43  0.000  0.250  0.451-  11 2.11   5 2.11  13 2.11  14 2.11  30 2.11  15 2.12
  44  0.250  0.500  0.451-  12 2.11   6 2.11  13 2.11  14 2.11  29 2.11  16 2.13
  45  0.000  0.500  0.352-  13 2.11  11 2.11  12 2.11   3 2.11  28 2.11
  46  0.250  0.250  0.352-  14 2.11  11 2.11  12 2.11   4 2.11  27 2.11
  47  0.000  0.250  0.651-   9 2.11  18 2.11  34 2.11  17 2.11  15 2.15
  48  0.249  0.500  0.651-  17 2.10  10 2.11  18 2.11  33 2.12  16 2.15
  49  0.000  0.500  0.550-  17 2.11  15 2.11   7 2.11  16 2.11  32 2.11  13 2.12
  50  0.250  0.250  0.550-  18 2.11  15 2.11   8 2.11  16 2.11  31 2.11  14 2.12
  51  0.500  0.750  0.451-  19 2.11   6 2.11  21 2.11  22 2.11  29 2.11  23 2.13
  52  0.750  0.000  0.451-  20 2.11   5 2.11  21 2.11  22 2.11  30 2.11  24 2.12
  53  0.500  0.000  0.352-  21 2.11  19 2.11  20 2.11   4 2.11  27 2.11
  54  0.750  0.750  0.352-  22 2.11  19 2.11  20 2.11   3 2.11  28 2.11
  55  0.500  0.751  0.651-  25 2.10  10 2.11  26 2.11  33 2.12  23 2.15
  56  0.750  0.000  0.651-   9 2.11  26 2.11  34 2.11  25 2.11  24 2.15
  57  0.500  0.000  0.550-  25 2.11  24 2.11   8 2.11  23 2.11  31 2.11  21 2.12
  58  0.750  0.750  0.550-  26 2.11  24 2.11   7 2.11  32 2.11  23 2.11  22 2.12
  59  0.500  0.250  0.451-  27 2.11  21 2.11  14 2.11  29 2.11  30 2.11  31 2.13
  60  0.750  0.500  0.451-  28 2.11  22 2.11  13 2.11  29 2.11  30 2.11  32 2.13
  61  0.500  0.500  0.352-  29 2.11  19 2.11  27 2.11  28 2.11  12 2.11
  62  0.750  0.250  0.352-  30 2.11  20 2.11  27 2.11  28 2.11  11 2.11
  63  0.500  0.249  0.651-  25 2.10  18 2.11  34 2.11  33 2.12  31 2.15
  64  0.751  0.500  0.651-  17 2.10  26 2.11  34 2.11  33 2.12  32 2.15
  65  0.500  0.500  0.550-  16 2.11  23 2.11  31 2.11  32 2.11  29 2.13  33 2.14
  66  0.750  0.250  0.550-  34 2.11  24 2.11  15 2.11  32 2.11  31 2.11  30 2.12

  LATTYP: Found a simple tetragonal cell.
 ALAT       =     8.4409846542
 C/A-ratio  =     2.5270438657
  
  Lattice vectors:
  
 A1 = (   8.4409846542,   0.0000000000,   0.0000000000)
 A2 = (   0.0000000000,   8.4409846542,   0.0000000000)
 A3 = (   0.0000000000,   0.0000000000,  21.3307384906)


Analysis of symmetry for initial positions (statically):
=====================================================================
 Subroutine PRICEL returns:
 Original cell was already a primitive cell.
 

 Routine SETGRP: Setting up the symmetry group for a 
 simple tetragonal supercell.


 Subroutine GETGRP returns: Found  8 space group operations
 (whereof  8 operations were pure point group operations)
 out of a pool of 16 trial point group operations.


The static configuration has the point symmetry C_4v.


Analysis of symmetry for dynamics (positions and initial velocities):
=====================================================================
 Subroutine PRICEL returns:
 Original cell was already a primitive cell.
 

 Routine SETGRP: Setting up the symmetry group for a 
 simple tetragonal supercell.


 Subroutine GETGRP returns: Found  8 space group operations
 (whereof  8 operations were pure point group operations)
 out of a pool of 16 trial point group operations.


The dynamic configuration has the point symmetry C_4v.


 Subroutine INISYM returns: Found  8 space group operations
 (whereof  8 operations are pure point group operations),
 and found     1 'primitive' translations


----------------------------------------------------------------------------------------

                                     Primitive cell                                     

  volume of cell :    1519.8199

  direct lattice vectors                    reciprocal lattice vectors
     8.440984654  0.000000000  0.000000000     0.118469591  0.000000000  0.000000000
     0.000000000  8.440984654  0.000000000     0.000000000  0.118469591  0.000000000
     0.000000000  0.000000000 21.330738491     0.000000000  0.000000000  0.046880702

  length of vectors
     8.440984654  8.440984654 21.330738491     0.118469591  0.118469591  0.046880702

  position of ions in fractional coordinates (direct lattice)
     0.500000000  0.500000000  0.769225137
     0.500000000  0.500000000  0.822988855
     0.000000000  0.750000000  0.351605267
     0.250000000  0.000000000  0.351605267
     0.000000000  0.000000000  0.450535089
     0.250000000  0.750000000  0.450535089
     0.000000000  0.749939268  0.550083239
     0.250060732  0.000000000  0.550083239
     0.000000000  0.000000000  0.648745309
     0.249858327  0.750141673  0.648569547
     0.000000000  0.250000000  0.351605267
     0.250000000  0.500000000  0.351605267
     0.000000000  0.500000000  0.450535089
     0.250000000  0.250000000  0.450535089
     0.000000000  0.250060732  0.550083239
     0.250378379  0.500000000  0.550219524
     0.000000000  0.500000000  0.648615280
     0.249858327  0.249858327  0.648569547
     0.500000000  0.750000000  0.351605267
     0.750000000  0.000000000  0.351605267
     0.500000000  0.000000000  0.450535089
     0.750000000  0.750000000  0.450535089
     0.500000000  0.749621621  0.550219524
     0.749939268  0.000000000  0.550083239
     0.500000000  0.000000000  0.648615280
     0.750141673  0.750141673  0.648569547
     0.500000000  0.250000000  0.351605267
     0.750000000  0.500000000  0.351605267
     0.500000000  0.500000000  0.450535089
     0.750000000  0.250000000  0.450535089
     0.500000000  0.250378379  0.550219524
     0.749621621  0.500000000  0.550219524
     0.500000000  0.500000000  0.650616960
     0.750141673  0.249858327  0.648569547
     0.000000000  0.750000000  0.450535089
     0.250000000  0.000000000  0.450535089
     0.000000000  0.000000000  0.351605267
     0.250000000  0.750000000  0.351605267
     0.000000000  0.750218533  0.650979255
     0.249781467  0.000000000  0.650979255
     0.000000000  0.000000000  0.549809890
     0.249945770  0.750054230  0.549859113
     0.000000000  0.250000000  0.450535089
     0.250000000  0.500000000  0.450535089
     0.000000000  0.500000000  0.351605267
     0.250000000  0.250000000  0.351605267
     0.000000000  0.249781467  0.650979255
     0.248822710  0.500000000  0.650882872
     0.000000000  0.500000000  0.549762666
     0.249945770  0.249945770  0.549859113
     0.500000000  0.750000000  0.450535089
     0.750000000  0.000000000  0.450535089
     0.500000000  0.000000000  0.351605267
     0.750000000  0.750000000  0.351605267
     0.500000000  0.751177290  0.650882872
     0.750218533  0.000000000  0.650979255
     0.500000000  0.000000000  0.549762666
     0.750054230  0.750054230  0.549859113
     0.500000000  0.250000000  0.450535089
     0.750000000  0.500000000  0.450535089
     0.500000000  0.500000000  0.351605267
     0.750000000  0.250000000  0.351605267
     0.500000000  0.248822710  0.650882872
     0.751177290  0.500000000  0.650882872
     0.500000000  0.500000000  0.550231357
     0.750054230  0.249945770  0.549859113

  ion indices of the primitive-cell ions
   primitive index   ion index
                 1           1
                 2           2
                 3           3
                 4           4
                 5           5
                 6           6
                 7           7
                 8           8
                 9           9
                10          10
                11          11
                12          12
                13          13
                14          14
                15          15
                16          16
                17          17
                18          18
                19          19
                20          20
                21          21
                22          22
                23          23
                24          24
                25          25
                26          26
                27          27
                28          28
                29          29
                30          30
                31          31
                32          32
                33          33
                34          34
                35          35
                36          36
                37          37
                38          38
                39          39
                40          40
                41          41
                42          42
                43          43
                44          44
                45          45
                46          46
                47          47
                48          48
                49          49
                50          50
                51          51
                52          52
                53          53
                54          54
                55          55
                56          56
                57          57
                58          58
                59          59
                60          60
                61          61
                62          62
                63          63
                64          64
                65          65
                66          66

----------------------------------------------------------------------------------------



 KPOINTS: pymatgen v2020.8.13 with grid density = 

Automatic generation of k-mesh.
 Grid dimensions read from file:
 generate k-points for:    2    2    1

 Generating k-lattice:

  Cartesian coordinates                     Fractional coordinates (reciprocal lattice)
     0.059234796  0.000000000  0.000000000     0.500000000  0.000000000  0.000000000
     0.000000000  0.059234796  0.000000000     0.000000000  0.500000000  0.000000000
     0.000000000  0.000000000  0.046880702     0.000000000  0.000000000  1.000000000

  Length of vectors
     0.059234796  0.059234796  0.046880702

  Shift w.r.t. Gamma in fractional coordinates (k-lattice)
     0.000000000  0.000000000  0.000000000

 
 Subroutine IBZKPT returns following result:
 ===========================================
 
 Found      3 irreducible k-points:
 
 Following reciprocal coordinates:
            Coordinates               Weight
  0.000000  0.000000  0.000000      1.000000
  0.500000  0.000000  0.000000      2.000000
  0.500000  0.500000  0.000000      1.000000
 
 Following cartesian coordinates:
            Coordinates               Weight
  0.000000  0.000000  0.000000      1.000000
  0.059235  0.000000  0.000000      2.000000
  0.059235  0.059235  0.000000      1.000000
 


--------------------------------------------------------------------------------------------------------




 Dimension of arrays:
   k-points           NKPTS =      3   k-points in BZ     NKDIM =      3   number of bands    NBANDS=    320
   number of dos      NEDOS =    301   number of ions     NIONS =     66
   non local maximal  LDIM  =      5   non local SUM 2l+1 LMDIM =     13
   total plane-waves  NPLWV = 373248
   max r-space proj   IRMAX =      1   max aug-charges    IRDMAX=   5039
   dimension x,y,z NGX =    54 NGY =   54 NGZ =  128
   dimension x,y,z NGXF=   108 NGYF=  108 NGZF=  256
   support grid    NGXF=   108 NGYF=  108 NGZF=  256
   ions per type =               1   1  32  32
   NGX,Y,Z   is equivalent  to a cutoff of  10.64, 10.64,  9.98 a.u.
   NGXF,Y,Z  is equivalent  to a cutoff of  21.27, 21.27, 19.95 a.u.

 SYSTEM =  MgO-rocksalt                            
 POSCAR =   C  O Mg  O                             

 Startparameter for this run:
   NWRITE =      2    write-flag & timer
   PREC   = normal    normal or accurate (medium, high low for compatibility)
   ISTART =      0    job   : 0-new  1-cont  2-samecut
   ICHARG =      2    charge: 1-file 2-atom 10-const
   ISPIN  =      1    spin polarized calculation?
   LNONCOLLINEAR =      F non collinear calculations
   LSORBIT =      F    spin-orbit coupling
   INIWAV =      1    electr: 0-lowe 1-rand  2-diag
   LASPH  =      T    aspherical Exc in radial PAW
 Electronic Relaxation 1
   ENCUT  =  600.0 eV  44.10 Ry    6.64 a.u.  16.86 16.86 42.60*2*pi/ulx,y,z
   ENINI  =  600.0     initial cutoff
   ENAUG  =  758.8 eV  augmentation charge cutoff
   NELM   =    200;   NELMIN=  8; NELMDL= -5     # of ELM steps 
   EDIFF  = 0.1E-05   stopping-criterion for ELM
   LREAL  =      F    real-space projection
   NLSPLINE    = F    spline interpolate recip. space projectors
   LCOMPAT=      F    compatible to vasp.4.4
   GGA_COMPAT  = T    GGA compatible to vasp.4.4-vasp.4.6
   LMAXPAW     = -100 max onsite density
   LMAXMIX     =    2 max onsite mixed and CHGCAR
   VOSKOWN=      0    Vosko Wilk Nusair interpolation
   ROPT   =    0.00000   0.00000   0.00000   0.00000
 Ionic relaxation
   EDIFFG = -.1E-01   stopping-criterion for IOM
   NSW    =      0    number of steps for IOM
   NBLOCK =      1;   KBLOCK =      1    inner block; outer block 
   IBRION =     -1    ionic relax: 0-MD 1-quasi-New 2-CG
   NFREE  =      0    steps in history (QN), initial steepest desc. (CG)
   ISIF   =      2    stress and relaxation
   IWAVPR =     10    prediction:  0-non 1-charg 2-wave 3-comb
   ISYM   =      2    0-nonsym 1-usesym 2-fastsym
   LCORR  =      T    Harris-Foulkes like correction to forces

   POTIM  = 0.5000    time-step for ionic-motion
   TEIN   =    0.0    initial temperature
   TEBEG  =    0.0;   TEEND  =   0.0 temperature during run
   SMASS  =  -3.00    Nose mass-parameter (am)
   estimated Nose-frequenzy (Omega)   =  0.10E-29 period in steps = 0.13E+47 mass=  -0.163E-26a.u.
   SCALEE = 1.0000    scale energy and forces
   NPACO  =    256;   APACO  = 10.0  distance and # of slots for P.C.
   PSTRESS=    0.0 pullay stress

  Mass of Ions in am
   POMASS =  12.01 16.00 24.30 16.00
  Ionic Valenz
   ZVAL   =   4.00  6.00  8.00  6.00
  Atomic Wigner-Seitz radii
   RWIGS  =  -1.00 -1.00 -1.00 -1.00
  virtual crystal weights 
   VCA    =   1.00  1.00  1.00  1.00
   NELECT =     458.0000    total number of electrons
   NUPDOWN=      -1.0000    fix difference up-down

 DOS related values:
   EMIN   =  10.00;   EMAX   =-10.00  energy-range for DOS
   EFERMI =   0.00
   ISMEAR =     0;   SIGMA  =   0.05  broadening in eV -4-tet -1-fermi 0-gaus

 Electronic relaxation 2 (details)
   IALGO  =     58    algorithm
   LDIAG  =      T    sub-space diagonalisation (order eigenvalues)
   LSUBROT=      F    optimize rotation matrix (better conditioning)
   TURBO    =      0    0=normal 1=particle mesh
   IRESTART =      0    0=no restart 2=restart with 2 vectors
   NREBOOT  =      0    no. of reboots
   NMIN     =      0    reboot dimension
   EREF     =   0.00    reference energy to select bands
   IMIX   =      4    mixing-type and parameters
     AMIX     =   0.40;   BMIX     =  1.00
     AMIX_MAG =   1.60;   BMIX_MAG =  1.00
     AMIN     =   0.10
     WC   =   100.;   INIMIX=   1;  MIXPRE=   1;  MAXMIX= -45

 Intra band minimization:
   WEIMIN = 0.0000     energy-eigenvalue tresh-hold
   EBREAK =  0.78E-09  absolut break condition
   DEPER  =   0.30     relativ break condition  

   TIME   =   0.40     timestep for ELM

  volume/ion in A,a.u.               =      23.03       155.40
  Fermi-wavevector in a.u.,A,eV,Ry     =   1.097571  2.074108 16.390423  1.204662
  Thomas-Fermi vector in A             =   2.233933

 Write flags
   LWAVE        =      F    write WAVECAR
   LDOWNSAMPLE  =      F    k-point downsampling of WAVECAR
   LCHARG       =      F    write CHGCAR
   LVTOT        =      F    write LOCPOT, total local potential
   LVHAR        =      F    write LOCPOT, Hartree potential only
   LELF         =      F    write electronic localiz. function (ELF)
   LORBIT       =      0    0 simple, 1 ext, 2 COOP (PROOUT), +10 PAW based schemes


 Dipole corrections
   LMONO  =      F    monopole corrections only (constant potential shift)
   LDIPOL =      T    correct potential (dipole corrections)
   IDIPOL =      3    1-x, 2-y, 3-z, 4-all directions 
   EPSILON=  1.0000000 bulk dielectric constant

 Exchange correlation treatment:
   GGA     =    RE    GGA type
   LEXCH   =    40    internal setting for exchange type
   LIBXC   =     F    Libxc                    
   VOSKOWN =     0    Vosko Wilk Nusair interpolation
   LHFCALC =     F    Hartree Fock is set to
   LHFONE  =     F    Hartree Fock one center treatment
   AEXX    =    0.0000 exact exchange contribution

 vdW DFT:
   LUSE_VDW   =     T    switch on vdW DFT
   Zab_VDW    =-.8491    correlation parameter
   PARAM1     =0.1234
   PARAM2     =1.0000
   PARAM3     =0.0000
   -- rVV10 --
   BPARAM     = 6.3000
   CPARAM     = 0.0093

 Linear response parameters
   LEPSILON=     F    determine dielectric tensor
   LRPA    =     F    only Hartree local field effects (RPA)
   LNABLA  =     F    use nabla operator in PAW spheres
   LVEL    =     F    velocity operator in full k-point grid
   CSHIFT  =0.1000    complex shift for real part using Kramers Kronig
   OMEGAMAX=  -1.0    maximum frequency
   DEG_THRESHOLD= 0.2000000E-02 threshold for treating states as degnerate
   RTIME   =   -0.100 relaxation time in fs
  (WPLASMAI=    0.000 imaginary part of plasma frequency in eV, 0.658/RTIME)
   DFIELD  = 0.0000000 0.0000000 0.0000000 field for delta impulse in time

  Optional k-point grid parameters
   LKPOINTS_OPT  =     F    use optional k-point grid
   KPOINTS_OPT_MODE=     1    mode for optional k-point grid

 Orbital magnetization related:
   ORBITALMAG=     F  switch on orbital magnetization
   LCHIMAG   =     F  perturbation theory with respect to B field
   DQ        =  0.001000  dq finite difference perturbation B field
   LLRAUG    =     F  two centre corrections for induced B field



--------------------------------------------------------------------------------------------------------


 Static calculation
 charge density and potential will be updated during run
 non-spin polarized calculation
 Conjugate gradient for all bands (Freysoldt, et al. PRB 79, 241103 (2009))
 preconditioned conjugated gradient                                        
 perform sub-space diagonalisation
    before iterative eigenvector-optimisation
 modified Broyden-mixing scheme, WC =      100.0
 initial mixing is a Kerker type mixing with AMIX =  0.4000 and BMIX =      1.0000
 Hartree-type preconditioning will be used
 using additional bands           91
 reciprocal scheme for non local part
 use partial core corrections
 no Harris-corrections to forces 
 use gradient corrections 
 use of overlap-Matrix (Vanderbilt PP)
 Gauss-broadening in eV      SIGMA  =   0.05


--------------------------------------------------------------------------------------------------------


  energy-cutoff  :      600.00
  volume of cell :     1519.82
      direct lattice vectors                 reciprocal lattice vectors
     8.440984654  0.000000000  0.000000000     0.118469591  0.000000000  0.000000000
     0.000000000  8.440984654  0.000000000     0.000000000  0.118469591  0.000000000
     0.000000000  0.000000000 21.330738491     0.000000000  0.000000000  0.046880702

  length of vectors
     8.440984654  8.440984654 21.330738491     0.118469591  0.118469591  0.046880702



 k-points in units of 2pi/SCALE and weight: pymatgen v2020.8.13 with grid density = 
   0.00000000  0.00000000  0.00000000       0.250
   0.05923480  0.00000000  0.00000000       0.500
   0.05923480  0.05923480  0.00000000       0.250

 k-points in reciprocal lattice and weights: pymatgen v2020.8.13 with grid density = 
   0.00000000  0.00000000  0.00000000       0.250
   0.50000000  0.00000000  0.00000000       0.500
   0.50000000  0.50000000  0.00000000       0.250

 position of ions in fractional coordinates (direct lattice) 
   0.50000000  0.50000000  0.76922514
   0.50000000  0.50000000  0.82298886
   0.00000000  0.75000000  0.35160527
   0.25000000  0.00000000  0.35160527
   0.00000000  0.00000000  0.45053509
   0.25000000  0.75000000  0.45053509
   0.00000000  0.74993927  0.55008324
   0.25006073  0.00000000  0.55008324
   0.00000000  0.00000000  0.64874531
   0.24985833  0.75014167  0.64856955
   0.00000000  0.25000000  0.35160527
   0.25000000  0.50000000  0.35160527
   0.00000000  0.50000000  0.45053509
   0.25000000  0.25000000  0.45053509
   0.00000000  0.25006073  0.55008324
   0.25037838  0.50000000  0.55021952
   0.00000000  0.50000000  0.64861528
   0.24985833  0.24985833  0.64856955
   0.50000000  0.75000000  0.35160527
   0.75000000  0.00000000  0.35160527
   0.50000000  0.00000000  0.45053509
   0.75000000  0.75000000  0.45053509
   0.50000000  0.74962162  0.55021952
   0.74993927  0.00000000  0.55008324
   0.50000000  0.00000000  0.64861528
   0.75014167  0.75014167  0.64856955
   0.50000000  0.25000000  0.35160527
   0.75000000  0.50000000  0.35160527
   0.50000000  0.50000000  0.45053509
   0.75000000  0.25000000  0.45053509
   0.50000000  0.25037838  0.55021952
   0.74962162  0.50000000  0.55021952
   0.50000000  0.50000000  0.65061696
   0.75014167  0.24985833  0.64856955
   0.00000000  0.75000000  0.45053509
   0.25000000  0.00000000  0.45053509
   0.00000000  0.00000000  0.35160527
   0.25000000  0.75000000  0.35160527
   0.00000000  0.75021853  0.65097926
   0.24978147  0.00000000  0.65097926
   0.00000000  0.00000000  0.54980989
   0.24994577  0.75005423  0.54985911
   0.00000000  0.25000000  0.45053509
   0.25000000  0.50000000  0.45053509
   0.00000000  0.50000000  0.35160527
   0.25000000  0.25000000  0.35160527
   0.00000000  0.24978147  0.65097926
   0.24882271  0.50000000  0.65088287
   0.00000000  0.50000000  0.54976267
   0.24994577  0.24994577  0.54985911
   0.50000000  0.75000000  0.45053509
   0.75000000  0.00000000  0.45053509
   0.50000000  0.00000000  0.35160527
   0.75000000  0.75000000  0.35160527
   0.50000000  0.75117729  0.65088287
   0.75021853  0.00000000  0.65097926
   0.50000000  0.00000000  0.54976267
   0.75005423  0.75005423  0.54985911
   0.50000000  0.25000000  0.45053509
   0.75000000  0.50000000  0.45053509
   0.50000000  0.50000000  0.35160527
   0.75000000  0.25000000  0.35160527
   0.50000000  0.24882271  0.65088287
   0.75117729  0.50000000  0.65088287
   0.50000000  0.50000000  0.55023136
   0.75005423  0.24994577  0.54985911

 position of ions in cartesian coordinates  (Angst):
   4.22049233  4.22049233 16.40814023
   4.22049233  4.22049233 17.55496005
   0.00000000  6.33073849  7.50000000
   2.11024616  0.00000000  7.50000000
   0.00000000  0.00000000  9.61024616
   2.11024616  6.33073849  9.61024616
   0.00000000  6.33022585 11.73368172
   2.11075880  0.00000000 11.73368172
   0.00000000  0.00000000 13.83821654
   2.10905031  6.33193435 13.83446740
   0.00000000  2.11024616  7.50000000
   2.11024616  4.22049233  7.50000000
   0.00000000  4.22049233  9.61024616
   2.11024616  2.11024616  9.61024616
   0.00000000  2.11075880 11.73368172
   2.11344006  4.22049233 11.73658877
   0.00000000  4.22049233 13.83544293
   2.10905031  2.10905031 13.83446740
   4.22049233  6.33073849  7.50000000
   6.33073849  0.00000000  7.50000000
   4.22049233  0.00000000  9.61024616
   6.33073849  6.33073849  9.61024616
   4.22049233  6.32754460 11.73658877
   6.33022585  0.00000000 11.73368172
   4.22049233  0.00000000 13.83544293
   6.33193435  6.33193435 13.83446740
   4.22049233  2.11024616  7.50000000
   6.33073849  4.22049233  7.50000000
   4.22049233  4.22049233  9.61024616
   6.33073849  2.11024616  9.61024616
   4.22049233  2.11344006 11.73658877
   6.32754460  4.22049233 11.73658877
   4.22049233  4.22049233 13.87814023
   6.33193435  2.10905031 13.83446740
   0.00000000  6.33073849  9.61024616
   2.11024616  0.00000000  9.61024616
   0.00000000  0.00000000  7.50000000
   2.11024616  6.33073849  7.50000000
   0.00000000  6.33258312 13.88586825
   2.10840153  0.00000000 13.88586825
   0.00000000  0.00000000 11.72785099
   2.10978841  6.33119624 11.72890095
   0.00000000  2.11024616  9.61024616
   2.11024616  4.22049233  9.61024616
   0.00000000  4.22049233  7.50000000
   2.11024616  2.11024616  7.50000000
   0.00000000  2.10840153 13.88586825
   2.10030867  4.22049233 13.88381232
   0.00000000  4.22049233 11.72684365
   2.10978841  2.10978841 11.72890095
   4.22049233  6.33073849  9.61024616
   6.33073849  0.00000000  9.61024616
   4.22049233  0.00000000  7.50000000
   6.33073849  6.33073849  7.50000000
   4.22049233  6.34067598 13.88381232
   6.33258312  0.00000000 13.88586825
   4.22049233  0.00000000 11.72684365
   6.33119624  6.33119624 11.72890095
   4.22049233  2.11024616  9.61024616
   6.33073849  4.22049233  9.61024616
   4.22049233  4.22049233  7.50000000
   6.33073849  2.11024616  7.50000000
   4.22049233  2.10030867 13.88381232
   6.34067598  4.22049233 13.88381232
   4.22049233  4.22049233 11.73684118
   6.33119624  2.10978841 11.72890095



--------------------------------------------------------------------------------------------------------


 k-point   1 :   0.0000 0.0000 0.0000  plane waves:   50745
 k-point   2 :   0.5000 0.0000 0.0000  plane waves:   50798
 k-point   3 :   0.5000 0.5000 0.0000  plane waves:   50752

 maximum and minimum number of plane-waves per node :     12720    12632

 maximum number of plane-waves:     50798
 maximum index in each direction: 
   IXMAX=   16   IYMAX=   16   IZMAX=   42
   IXMIN=  -17   IYMIN=  -17   IZMIN=  -42


 parallel 3D FFT for wavefunctions:
    minimum data exchange during FFTs selected (reduces bandwidth)
 parallel 3D FFT for charge:
    minimum data exchange during FFTs selected (reduces bandwidth)


 total amount of memory used by VASP MPI-rank0    78528. kBytes
=======================================================================

   base      :      30000. kBytes
   nonl-proj :      29343. kBytes
   fftplans  :       3857. kBytes
   grid      :       5885. kBytes
   one-center:        137. kBytes
   wavefun   :       9306. kBytes

     INWAV:  cpu time      0.0001: real time      0.0003
 Broyden mixing: mesh for mixing (old mesh)
   NGX = 33   NGY = 33   NGZ = 85
  (NGX  =108   NGY  =108   NGZ  =256)
  gives a total of  92565 points

 initial charge density was supplied:
 charge density of overlapping atoms calculated
 number of electron     458.0000000 magnetization 
 keeping initial charge density in first step


--------------------------------------------------------------------------------------------------------


 Maximum index for augmentation-charges          334 (set IRDMAX)


--------------------------------------------------------------------------------------------------------


 First call to EWALD:  gamma=   0.154
 Maximum number of real-space cells 4x 4x 2
 Maximum number of reciprocal cells 2x 2x 5

    FEWALD:  cpu time      0.0075: real time      0.0075


--------------------------------------- Iteration      1(   1)  ---------------------------------------


vdW kernel read from vdw_kernel.bindat
  0.0000  0.2424  0.5071  0.7962  1.1119  1.4567  1.8333  2.2446  2.6937  3.1842
  3.7199  4.3049  4.9438  5.6415  6.4036  7.2358  8.1446  9.1372 10.2212 11.4050
 12.6979 14.1099 15.6519 17.3360 19.1751 21.1837 23.3773 25.7729 28.3892 31.2465
 34.3669 37.7748 41.4965 45.5611 50.0000

    POTLOK:  cpu time      0.9516: real time      0.9550
    SETDIJ:  cpu time      0.0761: real time      0.0765
    TRIAL :  cpu time      5.4369: real time      5.5266
    CORREC:  cpu time      0.0010: real time      0.0012
    --------------------------------------------
      LOOP:  cpu time      6.4674: real time      6.6828

 eigenvalue-minimisations  :  2304
 total energy-change (2. order) : 0.4310716E+04  (-0.3069020E+05)
 number of electron     458.0000000 magnetization 
 augmentation part      458.0000000 magnetization 

 DIPCOR: dipole corrections for dipol
 direction  3 min pos     1,
 dipolmoment           0.000000      0.000000     -0.000316 electrons x Angstroem
 Tr[quadrupol]     -6318.707748

 energy correction for charged system         0.000000 eV
 dipol+quadrupol energy correction           -0.000000 eV
 added-field ion interaction          0.002592 eV  (added to PSCEN)


 Free energy of the ion-electron system (eV)
  ---------------------------------------------------
  alpha Z        PSCENC =       907.96669621
  Ewald energy   TEWEN  =    136939.22173565
  -Hartree energ DENC   =   -173038.59108495
  -exchange      EXHF   =         0.00000000
  -V(xc)+E(xc)   XCENC  =      1735.51483226
  PAW double counting   =     32391.11887895   -36187.02304673
  entropy T*S    EENTRO =        -0.02496677
  eigenvalues    EBANDS =     -6985.10849949
  atomic energy  EATOM  =     48547.64153090
  ---------------------------------------------------
  free energy    TOTEN  =      4310.71607603 eV

  energy without entropy =     4310.74104280  energy(sigma->0) =     4310.72855941


--------------------------------------------------------------------------------------------------------




--------------------------------------- Iteration      1(   2)  ---------------------------------------


    TRIAL :  cpu time      2.2481: real time      2.2483
    CORREC:  cpu time      0.0003: real time      0.0003
    --------------------------------------------
      LOOP:  cpu time      2.2536: real time      2.2631

 eigenvalue-minimisations  :  2304
 total energy-change (2. order) :-0.4302865E+04  (-0.4228014E+04)
 number of electron     458.0000000 magnetization 
 augmentation part      458.0000000 magnetization 

 DIPCOR: dipole corrections for dipol
 direction  3 min pos     1,
 dipolmoment           0.000000      0.000000     -0.000316 electrons x Angstroem
 Tr[quadrupol]     -6318.707748

 energy correction for charged system         0.000000 eV
 dipol+quadrupol energy correction           -0.000000 eV
 added-field ion interaction          0.002592 eV  (added to PSCEN)


 Free energy of the ion-electron system (eV)
  ---------------------------------------------------
  alpha Z        PSCENC =       907.96669621
  Ewald energy   TEWEN  =    136939.22173565
  -Hartree energ DENC   =   -173038.59108495
  -exchange      EXHF   =         0.00000000
  -V(xc)+E(xc)   XCENC  =      1735.51483226
  PAW double counting   =     32391.11887895   -36187.02304673
  entropy T*S    EENTRO =        -0.00000000
  eigenvalues    EBANDS =    -11287.99840891
  atomic energy  EATOM  =     48547.64153090
  ---------------------------------------------------
  free energy    TOTEN  =         7.85113337 eV

  energy without entropy =        7.85113337  energy(sigma->0) =        7.85113337


--------------------------------------------------------------------------------------------------------




--------------------------------------- Iteration      1(   3)  ---------------------------------------


    TRIAL :  cpu time      2.3661: real time      2.3663
    CORREC:  cpu time      0.0003: real time      0.0003
    --------------------------------------------
      LOOP:  cpu time      2.3712: real time      2.3811

 eigenvalue-minimisations  :  2304
 total energy-change (2. order) :-0.3136726E+03  (-0.3117196E+03)
 number of electron     458.0000000 magnetization 
 augmentation part      458.0000000 magnetization 

 DIPCOR: dipole corrections for dipol
 direction  3 min pos     1,
 dipolmoment           0.000000      0.000000     -0.000316 electrons x Angstroem
 Tr[quadrupol]     -6318.707748

 energy correction for charged system         0.000000 eV
 dipol+quadrupol energy correction           -0.000000 eV
 added-field ion interaction          0.002592 eV  (added to PSCEN)


 Free energy of the ion-electron system (eV)
  ---------------------------------------------------
  alpha Z        PSCENC =       907.96669621
  Ewald energy   TEWEN  =    136939.22173565
  -Hartree energ DENC   =   -173038.59108495
  -exchange      EXHF   =         0.00000000
  -V(xc)+E(xc)   XCENC  =      1735.51483226
  PAW double counting   =     32391.11887895   -36187.02304673
  entropy T*S    EENTRO =        -0.00000000
  eigenvalues    EBANDS =    -11601.67101601
  atomic energy  EATOM  =     48547.64153090
  ---------------------------------------------------
  free energy    TOTEN  =      -305.82147373 eV

  energy without entropy =     -305.82147373  energy(sigma->0) =     -305.82147373


--------------------------------------------------------------------------------------------------------




--------------------------------------- Iteration      1(   4)  ---------------------------------------


    TRIAL :  cpu time      2.3653: real time      2.3654
    CORREC:  cpu time      0.0003: real time      0.0003
    --------------------------------------------
      LOOP:  cpu time      2.3731: real time      2.3798

 eigenvalue-minimisations  :  2368
 total energy-change (2. order) :-0.5886581E+01  (-0.5879791E+01)
 number of electron     458.0000000 magnetization 
 augmentation part      458.0000000 magnetization 

 DIPCOR: dipole corrections for dipol
 direction  3 min pos     1,
 dipolmoment           0.000000      0.000000     -0.000316 electrons x Angstroem
 Tr[quadrupol]     -6318.707748

 energy correction for charged system         0.000000 eV
 dipol+quadrupol energy correction           -0.000000 eV
 added-field ion interaction          0.002592 eV  (added to PSCEN)


 Free energy of the ion-electron system (eV)
  ---------------------------------------------------
  alpha Z        PSCENC =       907.96669621
  Ewald energy   TEWEN  =    136939.22173565
  -Hartree energ DENC   =   -173038.59108495
  -exchange      EXHF   =         0.00000000
  -V(xc)+E(xc)   XCENC  =      1735.51483226
  PAW double counting   =     32391.11887895   -36187.02304673
  entropy T*S    EENTRO =        -0.00000000
  eigenvalues    EBANDS =    -11607.55759652
  atomic energy  EATOM  =     48547.64153090
  ---------------------------------------------------
  free energy    TOTEN  =      -311.70805424 eV

  energy without entropy =     -311.70805424  energy(sigma->0) =     -311.70805424


--------------------------------------------------------------------------------------------------------




--------------------------------------- Iteration      1(   5)  ---------------------------------------


    TRIAL :  cpu time      2.1423: real time      2.1428
    CORREC:  cpu time      0.0003: real time      0.0003
    CHARGE:  cpu time      0.0731: real time      0.0740
    --------------------------------------------
      LOOP:  cpu time      2.2219: real time      2.2313

 eigenvalue-minimisations  :  2240
 total energy-change (2. order) :-0.7432437E-01  (-0.7432196E-01)
 number of electron     457.9999403 magnetization 
 augmentation part      160.5742202 magnetization 

 DIPCOR: dipole corrections for dipol
 direction  3 min pos     1,
 dipolmoment           0.000000      0.000000     -0.000316 electrons x Angstroem
 Tr[quadrupol]     -6318.707748

 energy correction for charged system         0.000000 eV
 dipol+quadrupol energy correction           -0.000000 eV
 added-field ion interaction          0.002592 eV  (added to PSCEN)


 Free energy of the ion-electron system (eV)
  ---------------------------------------------------
  alpha Z        PSCENC =       907.96669621
  Ewald energy   TEWEN  =    136939.22173565
  -Hartree energ DENC   =   -173038.59108495
  -exchange      EXHF   =         0.00000000
  -V(xc)+E(xc)   XCENC  =      1735.51483226
  PAW double counting   =     32391.11887895   -36187.02304673
  entropy T*S    EENTRO =        -0.00000000
  eigenvalues    EBANDS =    -11607.63192089
  atomic energy  EATOM  =     48547.64153090
  ---------------------------------------------------
  free energy    TOTEN  =      -311.78237861 eV

  energy without entropy =     -311.78237861  energy(sigma->0) =     -311.78237861


--------------------------------------------------------------------------------------------------------




--------------------------------------- Iteration      1(   6)  ---------------------------------------


    POTLOK:  cpu time      0.3324: real time      0.3324
    SETDIJ:  cpu time      0.1811: real time      0.1811
    TRIAL :  cpu time      0.6725: real time      0.6730
    CORREC:  cpu time      0.8108: real time      0.8110
    CHARGE:  cpu time      0.0538: real time      0.0538
    --------------------------------------------
      LOOP:  cpu time      2.0645: real time      2.0655

 eigenvalue-minimisations  :     0
 total energy-change (2. order) : 0.2026004E+03  (-0.1135325E+03)
 number of electron     457.9999286 magnetization 
 augmentation part      157.2117036 magnetization 

 DIPCOR: dipole corrections for dipol
 direction  3 min pos     1,
 dipolmoment           0.000000      0.000000      0.220474 electrons x Angstroem
 Tr[quadrupol]     -6352.206627

 energy correction for charged system         0.000000 eV
 dipol+quadrupol energy correction           -0.002894 eV
 added-field ion interaction         -1.808573 eV  (added to PSCEN)


 Free energy of the ion-electron system (eV)
  ---------------------------------------------------
  alpha Z        PSCENC =       903.80280057
  Ewald energy   TEWEN  =    136939.22173565
  -Hartree energ DENC   =   -177054.06873311
  -exchange      EXHF   =         0.00000000
  -V(xc)+E(xc)   XCENC  =      1872.29314343
  PAW double counting   =     37225.46522662   -40993.45758370
  entropy T*S    EENTRO =        -0.00000000
  eigenvalues    EBANDS =     -7550.08005162
  atomic energy  EATOM  =     48547.64153090
  ---------------------------------------------------
  free energy    TOTEN  =      -109.18193127 eV

  energy without entropy =     -109.18193127  energy(sigma->0) =     -109.18193127


--------------------------------------------------------------------------------------------------------




--------------------------------------- Iteration      1(   7)  ---------------------------------------


    POTLOK:  cpu time      0.3135: real time      0.3136
    SETDIJ:  cpu time      0.1947: real time      0.1947
    TRIAL :  cpu time      0.6011: real time      0.6012
    CORREC:  cpu time      0.8034: real time      0.8034
    CHARGE:  cpu time      0.0539: real time      0.0539
    --------------------------------------------
      LOOP:  cpu time      1.9736: real time      1.9845

 eigenvalue-minimisations  :     0
 total energy-change (2. order) :-0.1141049E+03  (-0.7954711E+01)
 number of electron     457.9999274 magnetization 
 augmentation part      155.2973197 magnetization 

 DIPCOR: dipole corrections for dipol
 direction  3 min pos     1,
 dipolmoment           0.000000      0.000000      0.185676 electrons x Angstroem
 Tr[quadrupol]     -6359.624220

 energy correction for charged system         0.000000 eV
 dipol+quadrupol energy correction           -0.002052 eV
 added-field ion interaction         -1.523124 eV  (added to PSCEN)


 Free energy of the ion-electron system (eV)
  ---------------------------------------------------
  alpha Z        PSCENC =       905.85197294
  Ewald energy   TEWEN  =    136939.22173565
  -Hartree energ DENC   =   -175046.68435440
  -exchange      EXHF   =         0.00000000
  -V(xc)+E(xc)   XCENC  =      1796.35447456
  PAW double counting   =     36008.05663919   -39839.71532416
  entropy T*S    EENTRO =        -0.00000000
  eigenvalues    EBANDS =     -9534.01352762
  atomic energy  EATOM  =     48547.64153090
  ---------------------------------------------------
  free energy    TOTEN  =      -223.28685294 eV

  energy without entropy =     -223.28685294  energy(sigma->0) =     -223.28685294


--------------------------------------------------------------------------------------------------------




--------------------------------------- Iteration      1(   8)  ---------------------------------------


    POTLOK:  cpu time      0.3086: real time      0.3086
    SETDIJ:  cpu time      0.1987: real time      0.1987
    TRIAL :  cpu time      0.6004: real time      0.6004
    CORREC:  cpu time      0.8019: real time      0.8020
    CHARGE:  cpu time      0.0540: real time      0.0540
    --------------------------------------------
      LOOP:  cpu time      1.9783: real time      1.9788

 eigenvalue-minimisations  :     0
 total energy-change (2. order) :-0.7983067E+01  (-0.4952985E+01)
 number of electron     457.9999256 magnetization 
 augmentation part      155.4291358 magnetization 

 DIPCOR: dipole corrections for dipol
 direction  3 min pos     1,
 dipolmoment           0.000000      0.000000      0.101569 electrons x Angstroem
 Tr[quadrupol]     -6358.151415

 energy correction for charged system         0.000000 eV
 dipol+quadrupol energy correction           -0.000614 eV
 added-field ion interaction         -0.833180 eV  (added to PSCEN)


 Free energy of the ion-electron system (eV)
  ---------------------------------------------------
  alpha Z        PSCENC =       906.66856605
  Ewald energy   TEWEN  =    136939.22173565
  -Hartree energ DENC   =   -174997.14556250
  -exchange      EXHF   =         0.00000000
  -V(xc)+E(xc)   XCENC  =      1786.87888116
  PAW double counting   =     35910.75638259   -39673.71322279
  entropy T*S    EENTRO =        -0.00000000
  eigenvalues    EBANDS =     -9651.57823053
  atomic energy  EATOM  =     48547.64153090
  ---------------------------------------------------
  free energy    TOTEN  =      -231.26991948 eV

  energy without entropy =     -231.26991948  energy(sigma->0) =     -231.26991948


--------------------------------------------------------------------------------------------------------




--------------------------------------- Iteration      1(   9)  ---------------------------------------


    POTLOK:  cpu time      0.3118: real time      0.3118
    SETDIJ:  cpu time      0.1956: real time      0.1956
    TRIAL :  cpu time      0.6010: real time      0.6010
    CORREC:  cpu time      0.7988: real time      0.7988
    CHARGE:  cpu time      0.0544: real time      0.0544
    --------------------------------------------
      LOOP:  cpu time      1.9659: real time      1.9765

 eigenvalue-minimisations  :     0
 total energy-change (2. order) :-0.4811798E+01  (-0.1827390E+01)
 number of electron     457.9999256 magnetization 
 augmentation part      155.3966174 magnetization 

 DIPCOR: dipole corrections for dipol
 direction  3 min pos     1,
 dipolmoment           0.000000      0.000000      0.102314 electrons x Angstroem
 Tr[quadrupol]     -6348.820441

 energy correction for charged system         0.000000 eV
 dipol+quadrupol energy correction           -0.000623 eV
 added-field ion interaction         -0.839291 eV  (added to PSCEN)


 Free energy of the ion-electron system (eV)
  ---------------------------------------------------
  alpha Z        PSCENC =       907.38703725
  Ewald energy   TEWEN  =    136939.22173565
  -Hartree energ DENC   =   -174835.93207421
  -exchange      EXHF   =         0.00000000
  -V(xc)+E(xc)   XCENC  =      1785.97914535
  PAW double counting   =     35820.55533780   -39623.51775216
  entropy T*S    EENTRO =        -0.00000000
  eigenvalues    EBANDS =     -9777.41667760
  atomic energy  EATOM  =     48547.64153090
  ---------------------------------------------------
  free energy    TOTEN  =      -236.08171702 eV

  energy without entropy =     -236.08171702  energy(sigma->0) =     -236.08171702


--------------------------------------------------------------------------------------------------------




--------------------------------------- Iteration      1(  10)  ---------------------------------------


    POTLOK:  cpu time      0.3087: real time      0.3088
    SETDIJ:  cpu time      0.2005: real time      0.2006
    TRIAL :  cpu time      0.5995: real time      0.5999
    CORREC:  cpu time      0.8010: real time      0.8011
    CHARGE:  cpu time      0.0539: real time      0.0539
    --------------------------------------------
      LOOP:  cpu time      1.9781: real time      1.9786

 eigenvalue-minimisations  :     0
 total energy-change (2. order) :-0.1860837E+01  (-0.6463659E+00)
 number of electron     457.9999263 magnetization 
 augmentation part      155.3463897 magnetization 

 DIPCOR: dipole corrections for dipol
 direction  3 min pos     1,
 dipolmoment           0.000000      0.000000      0.139517 electrons x Angstroem
 Tr[quadrupol]     -6348.377224

 energy correction for charged system         0.000000 eV
 dipol+quadrupol energy correction           -0.001159 eV
 added-field ion interaction         -1.144476 eV  (added to PSCEN)


 Free energy of the ion-electron system (eV)
  ---------------------------------------------------
  alpha Z        PSCENC =       907.19291159
  Ewald energy   TEWEN  =    136939.22173565
  -Hartree energ DENC   =   -174627.29852632
  -exchange      EXHF   =         0.00000000
  -V(xc)+E(xc)   XCENC  =      1783.81229562
  PAW double counting   =     35706.75246405   -39514.74153077
  entropy T*S    EENTRO =        -0.00000000
  eigenvalues    EBANDS =     -9980.52343486
  atomic energy  EATOM  =     48547.64153090
  ---------------------------------------------------
  free energy    TOTEN  =      -237.94255413 eV

  energy without entropy =     -237.94255413  energy(sigma->0) =     -237.94255413


--------------------------------------------------------------------------------------------------------




--------------------------------------- Iteration      1(  11)  ---------------------------------------


    POTLOK:  cpu time      0.3139: real time      0.3139
    SETDIJ:  cpu time      0.1883: real time      0.1883
    TRIAL :  cpu time      0.5997: real time      0.5997
    CORREC:  cpu time      0.7949: real time      0.7949
    CHARGE:  cpu time      0.0536: real time      0.0536
    --------------------------------------------
      LOOP:  cpu time      1.9556: real time      1.9650

 eigenvalue-minimisations  :     0
 total energy-change (2. order) :-0.6478828E+00  (-0.2541435E+00)
 number of electron     457.9999268 magnetization 
 augmentation part      155.4699637 magnetization 

 DIPCOR: dipole corrections for dipol
 direction  3 min pos     1,
 dipolmoment           0.000000      0.000000      0.139292 electrons x Angstroem
 Tr[quadrupol]     -6349.560831

 energy correction for charged system         0.000000 eV
 dipol+quadrupol energy correction           -0.001155 eV
 added-field ion interaction         -1.142625 eV  (added to PSCEN)


 Free energy of the ion-electron system (eV)
  ---------------------------------------------------
  alpha Z        PSCENC =       906.87795288
  Ewald energy   TEWEN  =    136939.22173565
  -Hartree energ DENC   =   -174562.18911624
  -exchange      EXHF   =         0.00000000
  -V(xc)+E(xc)   XCENC  =      1782.80255257
  PAW double counting   =     35647.86920996   -39446.15068817
  entropy T*S    EENTRO =        -0.00000000
  eigenvalues    EBANDS =    -10054.66361444
  atomic energy  EATOM  =     48547.64153090
  ---------------------------------------------------
  free energy    TOTEN  =      -238.59043690 eV

  energy without entropy =     -238.59043690  energy(sigma->0) =     -238.59043690


--------------------------------------------------------------------------------------------------------




--------------------------------------- Iteration      1(  12)  ---------------------------------------


    POTLOK:  cpu time      0.3122: real time      0.3122
    SETDIJ:  cpu time      0.1942: real time      0.1943
    TRIAL :  cpu time      0.6004: real time      0.6004
    CORREC:  cpu time      0.7972: real time      0.7972
    CHARGE:  cpu time      0.0535: real time      0.0535
    --------------------------------------------
      LOOP:  cpu time      1.9623: real time      1.9724

 eigenvalue-minimisations  :     0
 total energy-change (2. order) :-0.2540920E+00  (-0.9794715E-01)
 number of electron     457.9999270 magnetization 
 augmentation part      155.5986715 magnetization 

 DIPCOR: dipole corrections for dipol
 direction  3 min pos     1,
 dipolmoment           0.000000      0.000000      0.133796 electrons x Angstroem
 Tr[quadrupol]     -6350.560335

 energy correction for charged system         0.000000 eV
 dipol+quadrupol energy correction           -0.001066 eV
 added-field ion interaction         -1.097544 eV  (added to PSCEN)


 Free energy of the ion-electron system (eV)
  ---------------------------------------------------
  alpha Z        PSCENC =       906.82253567
  Ewald energy   TEWEN  =    136939.22173565
  -Hartree energ DENC   =   -174599.75896297
  -exchange      EXHF   =         0.00000000
  -V(xc)+E(xc)   XCENC  =      1783.27201251
  PAW double counting   =     35635.35000426   -39432.43576065
  entropy T*S    EENTRO =        -0.00000000
  eigenvalues    EBANDS =    -10018.95762425
  atomic energy  EATOM  =     48547.64153090
  ---------------------------------------------------
  free energy    TOTEN  =      -238.84452889 eV

  energy without entropy =     -238.84452889  energy(sigma->0) =     -238.84452889


--------------------------------------------------------------------------------------------------------




--------------------------------------- Iteration      1(  13)  ---------------------------------------


    POTLOK:  cpu time      0.3137: real time      0.3138
    SETDIJ:  cpu time      0.1909: real time      0.1909
    TRIAL :  cpu time      0.5995: real time      0.5995
    CORREC:  cpu time      0.7951: real time      0.7951
    CHARGE:  cpu time      0.0532: real time      0.0532
    --------------------------------------------
      LOOP:  cpu time      1.9568: real time      1.9670

 eigenvalue-minimisations  :     0
 total energy-change (2. order) :-0.9794838E-01  (-0.4873454E-01)
 number of electron     457.9999269 magnetization 
 augmentation part      155.6422051 magnetization 

 DIPCOR: dipole corrections for dipol
 direction  3 min pos     1,
 dipolmoment           0.000000      0.000000      0.132046 electrons x Angstroem
 Tr[quadrupol]     -6351.117080

 energy correction for charged system         0.000000 eV
 dipol+quadrupol energy correction           -0.001038 eV
 added-field ion interaction         -1.083186 eV  (added to PSCEN)


 Free energy of the ion-electron system (eV)
  ---------------------------------------------------
  alpha Z        PSCENC =       906.86554546
  Ewald energy   TEWEN  =    136939.22173565
  -Hartree energ DENC   =   -174640.85198511
  -exchange      EXHF   =         0.00000000
  -V(xc)+E(xc)   XCENC  =      1783.71559277
  PAW double counting   =     35634.39029329   -39435.35228221
  entropy T*S    EENTRO =        -0.00000000
  eigenvalues    EBANDS =     -9974.57290800
  atomic energy  EATOM  =     48547.64153090
  ---------------------------------------------------
  free energy    TOTEN  =      -238.94247726 eV

  energy without entropy =     -238.94247726  energy(sigma->0) =     -238.94247726


--------------------------------------------------------------------------------------------------------




--------------------------------------- Iteration      1(  14)  ---------------------------------------


    POTLOK:  cpu time      0.3144: real time      0.3144
    SETDIJ:  cpu time      0.1937: real time      0.1937
    TRIAL :  cpu time      0.5999: real time      0.6000
    CORREC:  cpu time      0.8093: real time      0.8094
    CHARGE:  cpu time      0.0539: real time      0.0539
    --------------------------------------------
      LOOP:  cpu time      1.9760: real time      1.9857

 eigenvalue-minimisations  :     0
 total energy-change (2. order) :-0.4879185E-01  (-0.2318818E-01)
 number of electron     457.9999269 magnetization 
 augmentation part      155.6179432 magnetization 

 DIPCOR: dipole corrections for dipol
 direction  3 min pos     1,
 dipolmoment           0.000000      0.000000      0.133495 electrons x Angstroem
 Tr[quadrupol]     -6351.512882

 energy correction for charged system         0.000000 eV
 dipol+quadrupol energy correction           -0.001061 eV
 added-field ion interaction         -1.095074 eV  (added to PSCEN)


 Free energy of the ion-electron system (eV)
  ---------------------------------------------------
  alpha Z        PSCENC =       906.88164053
  Ewald energy   TEWEN  =    136939.22173565
  -Hartree energ DENC   =   -174660.29681611
  -exchange      EXHF   =         0.00000000
  -V(xc)+E(xc)   XCENC  =      1783.74676662
  PAW double counting   =     35633.52299397   -39436.51717373
  entropy T*S    EENTRO =        -0.00000000
  eigenvalues    EBANDS =     -9953.19194694
  atomic energy  EATOM  =     48547.64153090
  ---------------------------------------------------
  free energy    TOTEN  =      -238.99126912 eV

  energy without entropy =     -238.99126912  energy(sigma->0) =     -238.99126912


--------------------------------------------------------------------------------------------------------




--------------------------------------- Iteration      1(  15)  ---------------------------------------


[...]
    269       6.6243      0.00000
    270       6.6243      0.00000
    271       6.6850      0.00000
    272       6.7988      0.00000
    273       7.0922      0.00000
    274       7.0922      0.00000
    275       7.4009      0.00000
    276       7.6785      0.00000
    277       7.7447      0.00000
    278       7.7447      0.00000
    279       7.7478      0.00000
    280       8.1359      0.00000
    281       8.1360      0.00000
    282       8.1400      0.00000
    283       8.1429      0.00000
    284       8.1467      0.00000
    285       8.1554      0.00000
    286       8.1649      0.00000
    287       8.1668      0.00000
    288       8.2639      0.00000
    289       8.3103      0.00000
    290       8.3270      0.00000
    291       8.3811      0.00000
    292       8.3943      0.00000
    293       8.4581      0.00000
    294       8.5265      0.00000
    295       8.5441      0.00000
    296       8.5943      0.00000
    297       8.5948      0.00000
    298       8.6030      0.00000
    299       8.6192      0.00000
    300       8.6922      0.00000
    301       8.8955      0.00000
    302       8.9202      0.00000
    303       8.9846      0.00000
    304       9.0063      0.00000
    305       9.3086      0.00000
    306       9.3708      0.00000
    307       9.4647      0.00000
    308       9.4855      0.00000
    309       9.5533      0.00000
    310       9.6574      0.00000
    311       9.6741      0.00000
    312       9.7003      0.00000
    313       9.7485      0.00000
    314       9.8177      0.00000
    315       9.8912      0.00000
    316       9.8988      0.00000
    317      10.1991      0.00000
    318      10.3075      0.00000
    319      10.4465      0.00000
    320      10.4708      0.00000


--------------------------------------------------------------------------------------------------------


 soft charge-density along one line, spin component           1
         0         1         2         3         4         5         6         7         8         9
 total charge-density along one line

 pseudopotential strength for first ion, spin component:           1
 10.256  13.638   0.000   0.022   0.000  -0.000  -0.063  -0.000
 13.638  18.133   0.000   0.028   0.000  -0.000  -0.082  -0.000
  0.000   0.000  -4.346  -0.000  -0.000   8.549   0.000   0.000
  0.022   0.028  -0.000  -4.334  -0.000   0.000   8.489   0.000
  0.000   0.000  -0.000  -0.000  -4.346   0.000   0.000   8.549
 -0.000  -0.000   8.549   0.000   0.000 -18.955  -0.000  -0.000
 -0.063  -0.082   0.000   8.489   0.000  -0.000 -18.761  -0.000
 -0.000  -0.000   0.000   0.000   8.549  -0.000  -0.000 -18.955
 total augmentation occupancy for first ion, spin component:           1
  7.045  -3.192   0.000   2.084   0.000   0.000   0.375   0.000
 -3.192   1.866   0.000  -1.599   0.000   0.000  -0.226   0.000
  0.000   0.000   0.827   0.000   0.000   0.058   0.000   0.000
  2.084  -1.599   0.000   2.230   0.000   0.000   0.207  -0.000
  0.000   0.000   0.000   0.000   0.827   0.000   0.000   0.058
  0.000   0.000   0.058   0.000   0.000   0.004   0.000   0.000
  0.375  -0.226   0.000   0.207   0.000   0.000   0.028  -0.000
  0.000   0.000   0.000  -0.000   0.058   0.000  -0.000   0.004


------------------------ aborting loop because EDIFF is reached ----------------------------------------


    FORLOC:  cpu time      0.0041: real time      0.0041
    FORNL :  cpu time      0.4178: real time      0.4180
    STRESS:  cpu time      1.3361: real time      1.3365
    FORCOR:  cpu time      0.3084: real time      0.3084
    OFIELD:  cpu time      0.0001: real time      0.0001

  FORCE on cell =-STRESS in cart. coord.  units (eV):
  Direction    XX          YY          ZZ          XY          YZ          ZX
  --------------------------------------------------------------------------------------
  Alpha Z   907.96410   907.96410   907.96410
  Ewald  157441.22840157441.22840************     0.00000     0.00000    -0.00000
  Hartree167822.95312167822.95312************    -0.00000    -0.00000    -0.00000
  E(xc)   -2568.24456 -2568.24456 -2568.92358    -0.00000     0.00000     0.00000
  Local  ************************334834.40790    -0.00000     0.00000    -0.00000
  n-local -2831.69334 -2832.47356 -2862.03197    -0.00000     0.00000     0.00000
  augment  1084.10147  1084.10147  1074.52006     0.00000    -0.00000     0.00000
  Kinetic  7519.09528  7521.56731  7536.16138    -0.00000    -0.00000    -0.00000
  Fock        0.00000     0.00000     0.00000     0.00000     0.00000     0.00000
  -------------------------------------------------------------------------------------
  Total      -8.85497    -8.85497    11.98584     0.00000     0.00000     0.00000
  in kB      -9.33481    -9.33481    12.63534     0.00000     0.00000     0.00000
  external pressure =       -2.01 kB  Pullay stress =        0.00 kB


 VOLUME and BASIS-vectors are now :
 -----------------------------------------------------------------------------
  energy-cutoff  :      600.00
  volume of cell :     1519.82
      direct lattice vectors                 reciprocal lattice vectors
     8.440984654  0.000000000  0.000000000     0.118469591  0.000000000  0.000000000
     0.000000000  8.440984654  0.000000000     0.000000000  0.118469591  0.000000000
     0.000000000  0.000000000 21.330738491     0.000000000  0.000000000  0.046880702

  length of vectors
     8.440984654  8.440984654 21.330738491     0.118469591  0.118469591  0.046880702


 FORCES acting on ions:
    Electron-Ion                     Ewald-Force                    Non-Local-Force
 -----------------------------------------------------------------------------------------------
   0.108E-12 0.444E-12 -.818E+03   0.577E-14 -.555E-14 0.791E+03   0.000E+00 0.265E-22 0.273E+02
   0.440E-12 -.673E-13 -.142E+04   -.644E-14 -.444E-15 0.148E+04   0.000E+00 0.000E+00 -.600E+02
   -.700E-13 -.120E+00 0.208E+04   0.560E-13 0.120E+00 -.207E+04   -.265E-22 -.170E-03 -.647E+01
   0.120E+00 0.291E-12 0.208E+04   -.120E+00 0.671E-13 -.207E+04   0.170E-03 0.000E+00 -.647E+01
   -.564E-13 0.300E-12 0.712E+03   -.150E-10 0.150E-10 -.713E+03   0.000E+00 0.000E+00 0.460E+00
   0.415E+00 -.415E+00 0.713E+03   -.410E+00 0.410E+00 -.714E+03   -.269E-02 0.269E-02 0.482E+00
   -.459E-13 -.268E+01 -.643E+03   0.157E-11 0.266E+01 0.643E+03   0.000E+00 0.211E-01 -.106E+00
   0.268E+01 -.569E-12 -.643E+03   -.266E+01 -.151E-11 0.643E+03   -.211E-01 -.132E-21 -.106E+00
   -.725E-14 -.875E-12 -.200E+04   0.444E-12 -.416E-12 0.200E+04   0.000E+00 -.397E-22 0.537E+01
   0.169E+02 -.169E+02 -.198E+04   -.170E+02 0.170E+02 0.198E+04   0.788E-01 -.788E-01 0.547E+01
   -.704E-13 0.120E+00 0.208E+04   -.277E-12 -.120E+00 -.207E+04   -.331E-23 0.170E-03 -.647E+01
   0.113E+00 0.110E-11 0.208E+04   -.110E+00 0.131E-10 -.207E+04   -.153E-02 0.000E+00 -.647E+01
   -.588E-13 0.148E-11 0.714E+03   -.165E-10 0.000E+00 -.714E+03   0.529E-22 -.662E-23 0.417E+00
   0.415E+00 0.415E+00 0.713E+03   -.410E+00 -.410E+00 -.714E+03   -.269E-02 -.269E-02 0.482E+00
   -.434E-13 0.268E+01 -.643E+03   0.304E-11 -.266E+01 0.643E+03   -.106E-21 -.211E-01 -.106E+00
   0.371E+01 0.111E-11 -.637E+03   -.365E+01 0.178E-14 0.637E+03   -.752E-01 -.529E-22 -.239E+00
   -.409E-13 0.973E-12 -.199E+04   -.355E-13 -.995E-13 0.198E+04   0.000E+00 0.000E+00 0.538E+01
   0.169E+02 0.169E+02 -.198E+04   -.170E+02 -.170E+02 0.198E+04   0.788E-01 0.788E-01 0.547E+01
   0.896E-12 -.113E+00 0.208E+04   -.129E-10 0.110E+00 -.207E+04   0.000E+00 0.153E-02 -.647E+01
   -.120E+00 0.340E-12 0.208E+04   0.120E+00 0.471E-13 -.207E+04   -.170E-03 0.000E+00 -.647E+01
   0.826E-12 -.155E-12 0.714E+03   0.145E-11 0.150E-10 -.714E+03   0.000E+00 0.000E+00 0.417E+00
   -.415E+00 -.415E+00 0.713E+03   0.410E+00 0.410E+00 -.714E+03   0.269E-02 0.269E-02 0.482E+00
   0.831E-12 -.371E+01 -.637E+03   -.141E-11 0.365E+01 0.637E+03   -.165E-22 0.752E-01 -.239E+00
   -.268E+01 -.633E-12 -.643E+03   0.266E+01 -.156E-11 0.643E+03   0.211E-01 -.529E-22 -.106E+00
   0.932E-12 -.146E-11 -.199E+04   0.782E-13 -.355E-14 0.198E+04   0.000E+00 -.662E-23 0.538E+01
   -.169E+02 -.169E+02 -.198E+04   0.170E+02 0.170E+02 0.198E+04   -.788E-01 -.788E-01 0.547E+01
   0.906E-12 0.113E+00 0.208E+04   -.131E-10 -.110E+00 -.207E+04   -.132E-22 -.153E-02 -.647E+01
   -.113E+00 0.646E-12 0.208E+04   0.110E+00 0.131E-10 -.207E+04   0.153E-02 -.132E-22 -.647E+01
   0.886E-12 0.269E-11 0.714E+03   -.782E-13 0.355E-14 -.714E+03   -.132E-22 0.000E+00 0.563E+00
   -.415E+00 0.415E+00 0.713E+03   0.410E+00 -.410E+00 -.714E+03   0.269E-02 -.269E-02 0.482E+00
   0.808E-12 0.371E+01 -.637E+03   -.284E-13 -.365E+01 0.637E+03   0.000E+00 -.752E-01 -.239E+00
   -.371E+01 -.173E-11 -.637E+03   0.365E+01 0.000E+00 0.637E+03   0.752E-01 0.000E+00 -.239E+00
   0.927E-12 0.110E-11 -.192E+04   -.426E-13 -.391E-13 0.192E+04   -.132E-22 -.199E-22 0.417E+01
   -.169E+02 0.169E+02 -.198E+04   0.170E+02 -.170E+02 0.198E+04   -.788E-01 0.788E-01 0.547E+01
   -.769E-13 -.372E+00 0.534E+03   0.409E-13 0.366E+00 -.534E+03   0.000E+00 0.842E-02 -.737E-01
   0.372E+00 0.380E-12 0.534E+03   -.366E+00 0.391E-13 -.534E+03   -.842E-02 -.290E-23 -.737E-01
   -.585E-13 0.256E-12 0.156E+04   0.853E-11 -.844E-11 -.156E+04   -.265E-22 0.000E+00 0.355E+01
   0.866E-01 -.866E-01 0.156E+04   -.858E-01 0.858E-01 -.156E+04   -.105E-02 0.105E-02 0.355E+01
   -.603E-13 -.701E+01 -.152E+04   -.871E-12 0.695E+01 0.153E+04   -.265E-22 0.592E-01 -.509E+01
   0.701E+01 0.411E-12 -.152E+04   -.695E+01 0.881E-12 0.153E+04   -.592E-01 0.529E-22 -.509E+01
   -.717E-13 0.229E-12 -.479E+03   -.853E-13 0.639E-13 0.478E+03   0.000E+00 0.000E+00 0.258E+00
   0.237E+01 -.237E+01 -.474E+03   -.235E+01 0.235E+01 0.473E+03   -.114E-01 0.114E-01 0.319E+00
   -.744E-13 0.372E+00 0.534E+03   0.142E-13 -.366E+00 -.534E+03   -.132E-22 -.842E-02 -.737E-01
   0.326E+00 0.946E-12 0.535E+03   -.353E+00 -.764E-11 -.535E+03   0.374E-01 0.000E+00 -.942E-01
   -.778E-13 0.815E-12 0.156E+04   0.845E-11 -.796E-12 -.156E+04   0.000E+00 0.000E+00 0.355E+01
   0.866E-01 0.866E-01 0.156E+04   -.858E-01 -.858E-01 -.156E+04   -.105E-02 -.105E-02 0.355E+01
   -.589E-13 0.701E+01 -.152E+04   -.774E-12 -.695E+01 0.153E+04   0.331E-22 -.592E-01 -.509E+01
   0.216E+02 0.105E-11 -.149E+04   -.213E+02 0.810E-11 0.150E+04   -.264E+00 0.529E-22 -.508E+01
   -.700E-13 0.120E-11 -.474E+03   -.741E-11 0.711E-14 0.474E+03   0.000E+00 0.000E+00 0.270E+00
   0.237E+01 0.237E+01 -.474E+03   -.235E+01 -.235E+01 0.473E+03   -.114E-01 -.114E-01 0.319E+00
   0.309E-12 -.326E+00 0.535E+03   0.764E-11 0.353E+00 -.535E+03   0.265E-22 -.374E-01 -.942E-01
   -.372E+00 0.365E-12 0.534E+03   0.366E+00 0.142E-13 -.534E+03   0.842E-02 0.199E-22 -.737E-01
   0.368E-12 0.943E-13 0.156E+04   0.845E-12 -.846E-11 -.156E+04   0.529E-22 0.000E+00 0.355E+01
   -.866E-01 -.866E-01 0.156E+04   0.858E-01 0.858E-01 -.156E+04   0.105E-02 0.105E-02 0.355E+01
   0.356E-12 -.216E+02 -.149E+04   -.816E-11 0.213E+02 0.150E+04   0.529E-22 0.264E+00 -.508E+01
   -.701E+01 0.337E-12 -.152E+04   0.695E+01 0.924E-12 0.153E+04   0.592E-01 0.529E-22 -.509E+01
   0.327E-12 -.455E-12 -.474E+03   -.711E-14 0.738E-11 0.474E+03   0.000E+00 0.000E+00 0.270E+00
   -.237E+01 -.237E+01 -.474E+03   0.235E+01 0.235E+01 0.473E+03   0.114E-01 0.114E-01 0.319E+00
   0.311E-12 0.326E+00 0.535E+03   0.763E-11 -.353E+00 -.535E+03   0.265E-22 0.374E-01 -.942E-01
   -.326E+00 0.184E-11 0.535E+03   0.353E+00 -.769E-11 -.535E+03   -.374E-01 0.199E-22 -.942E-01
   0.374E-12 0.754E-12 0.156E+04   0.824E-12 -.838E-12 -.156E+04   0.000E+00 0.000E+00 0.355E+01
   -.866E-01 0.866E-01 0.156E+04   0.858E-01 -.858E-01 -.156E+04   0.105E-02 -.105E-02 0.355E+01
   0.359E-12 0.216E+02 -.149E+04   -.820E-11 -.213E+02 0.150E+04   -.529E-22 -.264E+00 -.508E+01
   -.216E+02 -.147E-11 -.149E+04   0.213E+02 0.819E-11 0.150E+04   0.264E+00 -.529E-22 -.508E+01
   0.305E-12 0.110E-11 -.474E+03   -.497E-13 0.426E-13 0.475E+03   0.000E+00 0.132E-22 -.194E+00
   -.237E+01 0.237E+01 -.474E+03   0.235E+01 -.235E+01 0.473E+03   0.114E-01 -.114E-01 0.319E+00
 -----------------------------------------------------------------------------------------------
   0.261E-10 0.268E-10 0.509E+02   0.197E-12 -.826E-13 0.909E-12   -.399E-16 0.416E-16 -.509E+02


 POSITION                                       TOTAL-FORCE (eV/Angst)
 -----------------------------------------------------------------------------------
      4.22049      4.22049     16.40814         0.000000     -0.000000      0.212053
      4.22049      4.22049     17.55496         0.000000     -0.000000     -0.201772
      0.00000      6.33074      7.50000         0.000000     -0.000014      0.149585
      2.11025      0.00000      7.50000         0.000014     -0.000000      0.149585
      0.00000      0.00000      9.61025         0.000000     -0.000000      0.035998
      2.11025      6.33074      9.61025         0.001626     -0.001626      0.038828
      0.00000      6.33023     11.73368         0.000000     -0.001332      0.028649
      2.11076      0.00000     11.73368         0.001332     -0.000000      0.028649
      0.00000      0.00000     13.83822         0.000000     -0.000000      0.201414
      2.10905      6.33193     13.83447        -0.009700      0.009700      0.184575
      0.00000      2.11025      7.50000         0.000000      0.000014      0.149585
      2.11025      4.22049      7.50000         0.000690     -0.000000      0.149643
      0.00000      4.22049      9.61025         0.000000     -0.000000      0.046273
      2.11025      2.11025      9.61025         0.001626      0.001626      0.038828
      0.00000      2.11076     11.73368         0.000000      0.001332      0.028649
      2.11344      4.22049     11.73659        -0.007939     -0.000000      0.037948
      0.00000      4.22049     13.83544         0.000000     -0.000000      0.192797
      2.10905      2.10905     13.83447        -0.009700     -0.009700      0.184575
      4.22049      6.33074      7.50000         0.000000     -0.000690      0.149643
      6.33074      0.00000      7.50000        -0.000014     -0.000000      0.149585
      4.22049      0.00000      9.61025         0.000000     -0.000000      0.046273
      6.33074      6.33074      9.61025        -0.001626     -0.001626      0.038828
      4.22049      6.32754     11.73659         0.000000      0.007939      0.037948
      6.33023      0.00000     11.73368        -0.001332     -0.000000      0.028649
      4.22049      0.00000     13.83544         0.000000     -0.000000      0.192797
      6.33193      6.33193     13.83447         0.009700      0.009700      0.184575
      4.22049      2.11025      7.50000         0.000000      0.000690      0.149643
      6.33074      4.22049      7.50000        -0.000690     -0.000000      0.149643
      4.22049      4.22049      9.61025         0.000000     -0.000000      0.055703
      6.33074      2.11025      9.61025        -0.001626      0.001626      0.038828
      4.22049      2.11344     11.73659         0.000000     -0.007939      0.037948
      6.32754      4.22049     11.73659         0.007939     -0.000000      0.037948
      4.22049      4.22049     13.87814         0.000000     -0.000000      0.282960
      6.33193      2.10905     13.83447         0.009700     -0.009700      0.184575
      0.00000      6.33074      9.61025         0.000000      0.002474      0.071658
      2.11025      0.00000      9.61025        -0.002474     -0.000000      0.071658
      0.00000      0.00000      7.50000         0.000000     -0.000000     -0.561250
      2.11025      6.33074      7.50000        -0.000281      0.000281     -0.561007
      0.00000      6.33258     13.88587         0.000000     -0.001462      0.049347
      2.10840      0.00000     13.88587         0.001462     -0.000000      0.049347
      0.00000      0.00000     11.72785         0.000000     -0.000000      0.018762
      2.10979      6.33120     11.72890         0.002065     -0.002065      0.009457
      0.00000      2.11025      9.61025         0.000000     -0.002474      0.071658
      2.11025      4.22049      9.61025         0.009979     -0.000000      0.080777
      0.00000      4.22049      7.50000         0.000000     -0.000000     -0.561130
      2.11025      2.11025      7.50000        -0.000281     -0.000281     -0.561007
      0.00000      2.10840     13.88587         0.000000      0.001462      0.049347
      2.10031      4.22049     13.88381         0.011456     -0.000000      0.042050
      0.00000      4.22049     11.72684         0.000000     -0.000000      0.012551
      2.10979      2.10979     11.72890         0.002065      0.002065      0.009457
      4.22049      6.33074      9.61025         0.000000     -0.009979      0.080777
      6.33074      0.00000      9.61025         0.002474     -0.000000      0.071658
      4.22049      0.00000      7.50000         0.000000     -0.000000     -0.561130
      6.33074      6.33074      7.50000         0.000281      0.000281     -0.561007
      4.22049      6.34068     13.88381         0.000000     -0.011456      0.042050
      6.33258      0.00000     13.88587        -0.001462     -0.000000      0.049347
      4.22049      0.00000     11.72684         0.000000     -0.000000      0.012551
      6.33120      6.33120     11.72890        -0.002065     -0.002065      0.009457
      4.22049      2.11025      9.61025         0.000000      0.009979      0.080777
      6.33074      4.22049      9.61025        -0.009979     -0.000000      0.080777
      4.22049      4.22049      7.50000         0.000000     -0.000000     -0.561756
      6.33074      2.11025      7.50000         0.000281     -0.000281     -0.561007
      4.22049      2.10031     13.88381         0.000000      0.011456      0.042050
      6.34068      4.22049     13.88381        -0.011456     -0.000000      0.042050
      4.22049      4.22049     11.73684         0.000000     -0.000000      0.010867
      6.33120      2.10979     11.72890        -0.002065      0.002065      0.009457
 -----------------------------------------------------------------------------------
    total drift:                                0.000000      0.000000     -0.011309


--------------------------------------------------------------------------------------------------------



  FREE ENERGIE OF THE ION-ELECTRON SYSTEM (eV)
  ---------------------------------------------------
  free  energy   TOTEN  =      -239.03141140 eV

  energy  without entropy=     -239.03141140  energy(sigma->0) =     -239.03141140



--------------------------------------------------------------------------------------------------------


    POTLOK:  cpu time      0.5035: real time      0.5037


--------------------------------------------------------------------------------------------------------


     LOOP+:  cpu time     62.0846: real time     62.6845
    4ORBIT:  cpu time      0.0000: real time      0.0000

 total amount of memory used by VASP MPI-rank0    78528. kBytes
=======================================================================

   base      :      30000. kBytes
   nonl-proj :      29343. kBytes
   fftplans  :       3857. kBytes
   grid      :       5885. kBytes
   one-center:        137. kBytes
   wavefun   :       9306. kBytes

  
  
 General timing and accounting informations for this job:
 ========================================================
  
                  Total CPU time used (sec):       80.681
                            User time (sec):       78.349
                          System time (sec):        2.333
                         Elapsed time (sec):       85.743
  
                   Maximum memory used (kb):      269524.
                   Average memory used (kb):          N/A
  
                          Minor page faults:        32747
                          Major page faults:           51
                 Voluntary context switches:         7300
