 **********************************************************************
                          MRCC program system
 **********************************************************************
 
                              Written by
     Mihaly Kallay, Peter R. Nagy, David Mester, Laszlo Gyevi-Nagy,
        Jozsef Csoka, P. Bernat Szabo, Zoltan Rolik, Gyula Samu,
     Jozsef Csontos, Bence Hegely, Adam Ganyecz, Istvan Ladjanszki,
       Lorant Szegedy, Bence Ladoczki, Klara Petrov, Mate Farkas,
                    Pal D. Mezei, and Reka A. Horvath
 
        Department of Physical Chemistry and Materials Science
            Budapest University of Technology and Economics
                  Budapest P.O.Box 91, H-1521 Hungary
 
                              www.mrcc.hu
 
                      Release date: March 18, 2022

 ************************ 2022-11-14 12:09:17 *************************
 Executing minp...

 Reading input from MINP...
 
 Input file:
 
calc=LNO-CCSD(T)
scftype=rhf
verbosity=3
mem=150GB
symm=off
unit=angs
scfiguess=small
scfmaxit=1000
scfalg=locfit1


lcorthr=tight
bpedo=0.99999
ccmaxit=400
usedisk=0
ccsdalg=dfdirect
ccsdthreads=4
ccsdmkl=thr
ptthreads=4

charge=-32
core=34

basis=special
aug-cc-pVTZ
aug-cc-pVTZ
bse_CVTZ
aug-cc-pVTZ
aug-cc-pVTZ
aug-cc-pVTZ
aug-cc-pVTZ
aug-cc-pVTZ
bse_CVTZ
bse_CVTZ
bse_CVTZ
bse_CVTZ
aug-cc-pVTZ
aug-cc-pVTZ
aug-cc-pVTZ
aug-cc-pVTZ
bse_CVTZ
bse_CVTZ
bse_CVTZ
bse_CVTZ
aug-cc-pVTZ
aug-cc-pVTZ
aug-cc-pVTZ
aug-cc-pVTZ
aug-cc-pVTZ
aug-cc-pVTZ
aug-cc-pVTZ
aug-cc-pVTZ
aug-cc-pVTZ
aug-cc-pVTZ
aug-cc-pVTZ
aug-cc-pVTZ
aug-cc-pVTZ
aug-cc-pVTZ
aug-cc-pVTZ
aug-cc-pVTZ
nothing
nothing
nothing
nothing
nothing
nothing
nothing
nothing
nothing
nothing
nothing
nothing
nothing
nothing
nothing
nothing
nothing
nothing
nothing
nothing
nothing
nothing
nothing
nothing
nothing
nothing
nothing
nothing
nothing
nothing
nothing
nothing
nothing
nothing
nothing
nothing
nothing
nothing
nothing
nothing
nothing
nothing
nothing
nothing
nothing
nothing
nothing
nothing
nothing
nothing
nothing
nothing
nothing
nothing
nothing
nothing
nothing
nothing
nothing
nothing
nothing
nothing
nothing
nothing
nothing
nothing
nothing
nothing
nothing

basis_sm=special
def2-SVP
def2-SVP
def2-SVP
def2-SVP
def2-SVP
def2-SVP
def2-SVP
def2-SVP
def2-SVP
def2-SVP
def2-SVP
def2-SVP
def2-SVP
def2-SVP
def2-SVP
def2-SVP
def2-SVP
def2-SVP
def2-SVP
def2-SVP
def2-SVP
def2-SVP
def2-SVP
def2-SVP
def2-SVP
def2-SVP
def2-SVP
def2-SVP
def2-SVP
def2-SVP
def2-SVP
def2-SVP
def2-SVP
def2-SVP
def2-SVP
def2-SVP
nothing
nothing
nothing
nothing
nothing
nothing
nothing
nothing
nothing
nothing
nothing
nothing
nothing
nothing
nothing
nothing
nothing
nothing
nothing
nothing
nothing
nothing
nothing
nothing
nothing
nothing
nothing
nothing
nothing
nothing
nothing
nothing
nothing
nothing
nothing
nothing
nothing
nothing
nothing
nothing
nothing
nothing
nothing
nothing
nothing
nothing
nothing
nothing
nothing
nothing
nothing
nothing
nothing
nothing
nothing
nothing
nothing
nothing
nothing
nothing
nothing
nothing
nothing
nothing
nothing
nothing
nothing
nothing
nothing

dfbasis_scf=special
def2-QZVPP-RI-JK
def2-QZVPP-RI-JK
def2-QZVPP-RI-JK
def2-QZVPP-RI-JK
def2-QZVPP-RI-JK
def2-QZVPP-RI-JK
def2-QZVPP-RI-JK
def2-QZVPP-RI-JK
def2-QZVPP-RI-JK
def2-QZVPP-RI-JK
def2-QZVPP-RI-JK
def2-QZVPP-RI-JK
def2-QZVPP-RI-JK
def2-QZVPP-RI-JK
def2-QZVPP-RI-JK
def2-QZVPP-RI-JK
def2-QZVPP-RI-JK
def2-QZVPP-RI-JK
def2-QZVPP-RI-JK
def2-QZVPP-RI-JK
def2-QZVPP-RI-JK
def2-QZVPP-RI-JK
def2-QZVPP-RI-JK
def2-QZVPP-RI-JK
def2-QZVPP-RI-JK
def2-QZVPP-RI-JK
def2-QZVPP-RI-JK
def2-QZVPP-RI-JK
def2-QZVPP-RI-JK
def2-QZVPP-RI-JK
def2-QZVPP-RI-JK
def2-QZVPP-RI-JK
def2-QZVPP-RI-JK
def2-QZVPP-RI-JK
def2-QZVPP-RI-JK
def2-QZVPP-RI-JK
nothing
nothing
nothing
nothing
nothing
nothing
nothing
nothing
nothing
nothing
nothing
nothing
nothing
nothing
nothing
nothing
nothing
nothing
nothing
nothing
nothing
nothing
nothing
nothing
nothing
nothing
nothing
nothing
nothing
nothing
nothing
nothing
nothing
nothing
nothing
nothing
nothing
nothing
nothing
nothing
nothing
nothing
nothing
nothing
nothing
nothing
nothing
nothing
nothing
nothing
nothing
nothing
nothing
nothing
nothing
nothing
nothing
nothing
nothing
nothing
nothing
nothing
nothing
nothing
nothing
nothing
nothing
nothing
nothing

dfbasis_cor=special
aug-cc-pVTZ-RI
aug-cc-pVTZ-RI
bse_CVTZ_mp2fit
aug-cc-pVTZ-RI
aug-cc-pVTZ-RI
aug-cc-pVTZ-RI
aug-cc-pVTZ-RI
aug-cc-pVTZ-RI
bse_CVTZ_mp2fit
bse_CVTZ_mp2fit
bse_CVTZ_mp2fit
bse_CVTZ_mp2fit
aug-cc-pVTZ-RI
aug-cc-pVTZ-RI
aug-cc-pVTZ-RI
aug-cc-pVTZ-RI
bse_CVTZ_mp2fit
bse_CVTZ_mp2fit
bse_CVTZ_mp2fit
bse_CVTZ_mp2fit
aug-cc-pVTZ-RI
aug-cc-pVTZ-RI
aug-cc-pVTZ-RI
aug-cc-pVTZ-RI
aug-cc-pVTZ-RI
aug-cc-pVTZ-RI
aug-cc-pVTZ-RI
aug-cc-pVTZ-RI
aug-cc-pVTZ-RI
aug-cc-pVTZ-RI
aug-cc-pVTZ-RI
aug-cc-pVTZ-RI
aug-cc-pVTZ-RI
aug-cc-pVTZ-RI
aug-cc-pVTZ-RI
aug-cc-pVTZ-RI
nothing
nothing
nothing
nothing
nothing
nothing
nothing
nothing
nothing
nothing
nothing
nothing
nothing
nothing
nothing
nothing
nothing
nothing
nothing
nothing
nothing
nothing
nothing
nothing
nothing
nothing
nothing
nothing
nothing
nothing
nothing
nothing
nothing
nothing
nothing
nothing
nothing
nothing
nothing
nothing
nothing
nothing
nothing
nothing
nothing
nothing
nothing
nothing
nothing
nothing
nothing
nothing
nothing
nothing
nothing
nothing
nothing
nothing
nothing
nothing
nothing
nothing
nothing
nothing
nothing
nothing
nothing
nothing
nothing

ecp=special
none
none
none
none
none
none
none
none
none
none
none
none
none
none
none
none
none
none
none
none
none
none
none
none
none
none
none
none
none
none
none
none
none
none
none
none
ECP-12
ECP-12
ECP-12
ECP-12
ECP-12
ECP-12
ECP-12
ECP-12
ECP-12
ECP-12
ECP-12
ECP-12
ECP-12
ECP-12
ECP-12
ECP-12
ECP-12
ECP-12
ECP-12
ECP-12
ECP-12
ECP-12
ECP-12
ECP-12
ECP-12
ECP-12
ECP-12
ECP-12
ECP-12
ECP-12
ECP-12
ECP-12
ECP-12
ECP-12
ECP-12
ECP-12
ECP-12
ECP-12
ECP-12
ECP-12
ECP-12
ECP-12
ECP-12
ECP-12
ECP-12
ECP-12
ECP-12
ECP-12
ECP-12
ECP-12
ECP-12
ECP-12
ECP-12
ECP-12
ECP-12
ECP-12
ECP-12
ECP-12
ECP-12
ECP-12
ECP-12
ECP-12
ECP-12
ECP-12
ECP-12
ECP-12
ECP-12
ECP-12
ECP-12

unit=angs
geom=xyz
105
C1 O1 Mg9 O25 ECP69
C     0.00000000000    0.00000000000    2.43329433571
O     0.00000000000    0.00000000000    3.58011415037
Mg    0.00000000000    0.00000000000   -0.00772802266
O    -2.12018425659    0.00000000000   -0.00205593177
O     0.00000000000    2.12018425659   -0.00205593177
O     2.12018425659    0.00000000000   -0.00205593177
O     0.00000000000   -2.12018425659   -0.00205593177
O     0.00000000000    0.00000000000   -2.14902768389
Mg   -2.11144262254    2.11144262254   -0.05140086690
Mg    2.11144262254    2.11144262254   -0.05140086690
Mg    2.11144262254   -2.11144262254   -0.05140086690
Mg   -2.11144262254   -2.11144262254   -0.05140086690
O    -2.11070451449    2.11070451449   -2.15696791928
O     2.11070451449    2.11070451449   -2.15696791928
O     2.11070451449   -2.11070451449   -2.15696791928
O    -2.11070451449   -2.11070451449   -2.15696791928
Mg   -4.22049352791    0.00000000000   -0.05042534122
Mg    0.00000000000    4.22049352791   -0.05042534122
Mg    4.22049352791    0.00000000000   -0.05042534122
Mg    0.00000000000   -4.22049352791   -0.05042534122
O    -4.22049352791    2.11209139723    0.00000000000
O    -2.11209139723    4.22049352791    0.00000000000
O     2.11209139723    4.22049352791    0.00000000000
O     4.22049352791    2.11209139723    0.00000000000
O     4.22049352791   -2.11209139723    0.00000000000
O     2.11209139723   -4.22049352791    0.00000000000
O    -2.11209139723   -4.22049352791    0.00000000000
O    -4.22049352791   -2.11209139723    0.00000000000
O    -4.22049352791    0.00000000000   -2.15902521756
O     0.00000000000    4.22049352791   -2.15902521756
O     4.22049352791    0.00000000000   -2.15902521756
O     0.00000000000   -4.22049352791   -2.15902521756
O    -6.32080279923    0.00000000000   -0.00205593177
O     0.00000000000    6.32080279923   -0.00205593177
O     6.32080279923    0.00000000000   -0.00205593177
O     0.00000000000   -6.32080279923   -0.00205593177
Mg   -2.10705287155    0.00000000000   -2.14928009216
Mg    0.00000000000    2.10705287155   -2.14928009216
Mg    2.10705287155    0.00000000000   -2.14928009216
Mg    0.00000000000   -2.10705287155   -2.14928009216
Mg    0.00000000000    0.00000000000   -4.27562330794
Mg   -4.22049352791    2.10973412517   -2.15218714568
Mg   -2.10973412517    4.22049352791   -2.15218714568
Mg    2.10973412517    4.22049352791   -2.15218714568
Mg    4.22049352791    2.10973412517   -2.15218714568
Mg    4.22049352791   -2.10973412517   -2.15218714568
Mg    2.10973412517   -4.22049352791   -2.15218714568
Mg   -2.10973412517   -4.22049352791   -2.15218714568
Mg   -4.22049352791   -2.10973412517   -2.15218714568
Mg   -2.11024676395    2.11024676395   -4.27562330794
Mg    2.11024676395    2.11024676395   -4.27562330794
Mg    2.11024676395   -2.11024676395   -4.27562330794
Mg   -2.11024676395   -2.11024676395   -4.27562330794
Mg   -4.22049352791    4.22049352791   -0.04765173215
Mg    4.22049352791    4.22049352791   -0.04765173215
Mg    4.22049352791   -4.22049352791   -0.04765173215
Mg   -4.22049352791   -4.22049352791   -0.04765173215
Mg   -4.22049352791    0.00000000000   -4.27562330794
Mg    0.00000000000    4.22049352791   -4.27562330794
Mg    4.22049352791    0.00000000000   -4.27562330794
Mg    0.00000000000   -4.22049352791   -4.27562330794
Mg   -6.32954443328    2.11144262254   -0.05140086690
Mg   -2.11144262254    6.32954443328   -0.05140086690
Mg    2.11144262254    6.32954443328   -0.05140086690
Mg    6.32954443328    2.11144262254   -0.05140086690
Mg    6.32954443328   -2.11144262254   -0.05140086690
Mg    2.11144262254   -6.32954443328   -0.05140086690
Mg   -2.11144262254   -6.32954443328   -0.05140086690
Mg   -6.32954443328   -2.11144262254   -0.05140086690
Mg   -6.33393418427    0.00000000000   -2.14928009216
Mg    0.00000000000    6.33393418427   -2.14928009216
Mg    6.33393418427    0.00000000000   -2.14928009216
Mg    0.00000000000   -6.33393418427   -2.14928009216
Mg   -4.22049352791    4.22049352791   -4.27562330794
Mg    4.22049352791    4.22049352791   -4.27562330794
Mg    4.22049352791   -4.22049352791   -4.27562330794
Mg   -4.22049352791   -4.22049352791   -4.27562330794
Mg   -6.33125293065    4.22049352791   -2.15218714568
Mg   -4.22049352791    6.33125293065   -2.15218714568
Mg    4.22049352791    6.33125293065   -2.15218714568
Mg    6.33125293065    4.22049352791   -2.15218714568
Mg    6.33125293065   -4.22049352791   -2.15218714568
Mg    4.22049352791   -6.33125293065   -2.15218714568
Mg   -4.22049352791   -6.33125293065   -2.15218714568
Mg   -6.33125293065   -4.22049352791   -2.15218714568
Mg   -6.33074029186    2.11024676395   -4.27562330794
Mg   -2.11024676395    6.33074029186   -4.27562330794
Mg    2.11024676395    6.33074029186   -4.27562330794
Mg    6.33074029186    2.11024676395   -4.27562330794
Mg    6.33074029186   -2.11024676395   -4.27562330794
Mg    2.11024676395   -6.33074029186   -4.27562330794
Mg   -2.11024676395   -6.33074029186   -4.27562330794
Mg   -6.33074029186   -2.11024676395   -4.27562330794
Mg   -8.44098705582    0.00000000000   -0.00772802266
Mg    0.00000000000    8.44098705582   -0.00772802266
Mg    8.44098705582    0.00000000000   -0.00772802266
Mg    0.00000000000   -8.44098705582   -0.00772802266
Mg   -8.44098705582    2.10705287155   -2.14928009216
Mg   -2.10705287155    8.44098705582   -2.14928009216
Mg    2.10705287155    8.44098705582   -2.14928009216
Mg    8.44098705582    2.10705287155   -2.14928009216
Mg    8.44098705582   -2.10705287155   -2.14928009216
Mg    2.10705287155   -8.44098705582   -2.14928009216
Mg   -2.10705287155   -8.44098705582   -2.14928009216
Mg   -8.44098705582   -2.10705287155   -2.14928009216


ghost=serialno
1-2

qmmm=Amber
pointcharges
10157
     -2.10705287155    0.00000000000   -2.14928009216    2.00000000000
      0.00000000000    2.10705287155   -2.14928009216    2.00000000000
      2.10705287155    0.00000000000   -2.14928009216    2.00000000000
      0.00000000000   -2.10705287155   -2.14928009216    2.00000000000
      0.00000000000    0.00000000000   -4.27562330794    2.00000000000
     -2.11024676395    0.00000000000   -4.27562330794   -2.00000000000
      0.00000000000    2.11024676395   -4.27562330794   -2.00000000000
      2.11024676395    0.00000000000   -4.27562330794   -2.00000000000
      0.00000000000   -2.11024676395   -4.27562330794   -2.00000000000
     -4.22049352791    2.10973412517   -2.15218714568    2.00000000000
     -2.10973412517    4.22049352791   -2.15218714568    2.00000000000
      2.10973412517    4.22049352791   -2.15218714568    2.00000000000
      4.22049352791    2.10973412517   -2.15218714568    2.00000000000
      4.22049352791   -2.10973412517   -2.15218714568    2.00000000000
      2.10973412517   -4.22049352791   -2.15218714568    2.00000000000
     -2.10973412517   -4.22049352791   -2.15218714568    2.00000000000
     -4.22049352791   -2.10973412517   -2.15218714568    2.00000000000
     -2.11024676395    2.11024676395   -4.27562330794    2.00000000000
      2.11024676395    2.11024676395   -4.27562330794    2.00000000000
      2.11024676395   -2.11024676395   -4.27562330794    2.00000000000
     -2.11024676395   -2.11024676395   -4.27562330794    2.00000000000
     -4.22049352791    4.22049352791   -0.04765173215    2.00000000000
      4.22049352791    4.22049352791   -0.04765173215    2.00000000000
      4.22049352791   -4.22049352791   -0.04765173215    2.00000000000
     -4.22049352791   -4.22049352791   -0.04765173215    2.00000000000
     -4.22049352791    0.00000000000   -4.27562330794    2.00000000000
      0.00000000000    4.22049352791   -4.27562330794    2.00000000000
      4.22049352791    0.00000000000   -4.27562330794    2.00000000000
      0.00000000000   -4.22049352791   -4.27562330794    2.00000000000
     -4.22049352791    4.22049352791   -2.15801787533   -2.00000000000
      4.22049352791    4.22049352791   -2.15801787533   -2.00000000000
      4.22049352791   -4.22049352791   -2.15801787533   -2.00000000000
     -4.22049352791   -4.22049352791   -2.15801787533   -2.00000000000
     -4.22049352791    2.11024676395   -4.27562330794   -2.00000000000
     -2.11024676395    4.22049352791   -4.27562330794   -2.00000000000
      2.11024676395    4.22049352791   -4.27562330794   -2.00000000000
      4.22049352791    2.11024676395   -4.27562330794   -2.00000000000
      4.22049352791   -2.11024676395   -4.27562330794   -2.00000000000
      2.11024676395   -4.22049352791   -4.27562330794   -2.00000000000
     -2.11024676395   -4.22049352791   -4.27562330794   -2.00000000000
     -4.22049352791   -2.11024676395   -4.27562330794   -2.00000000000
     -6.32954443328    2.11144262254   -0.05140086690    2.00000000000
     -2.11144262254    6.32954443328   -0.05140086690    2.00000000000
      2.11144262254    6.32954443328   -0.05140086690    2.00000000000
      6.32954443328    2.11144262254   -0.05140086690    2.00000000000
      6.32954443328   -2.11144262254   -0.05140086690    2.00000000000
      2.11144262254   -6.32954443328   -0.05140086690    2.00000000000
     -2.11144262254   -6.32954443328   -0.05140086690    2.00000000000
     -6.32954443328   -2.11144262254   -0.05140086690    2.00000000000
     -6.33393418427    0.00000000000   -2.14928009216    2.00000000000
      0.00000000000    6.33393418427   -2.14928009216    2.00000000000
      6.33393418427    0.00000000000   -2.14928009216    2.00000000000
      0.00000000000   -6.33393418427   -2.14928009216    2.00000000000
     -6.33028254133    2.11070451449   -2.15696791928   -2.00000000000
     -2.11070451449    6.33028254133   -2.15696791928   -2.00000000000
      2.11070451449    6.33028254133   -2.15696791928   -2.00000000000
      6.33028254133    2.11070451449   -2.15696791928   -2.00000000000
      6.33028254133   -2.11070451449   -2.15696791928   -2.00000000000
      2.11070451449   -6.33028254133   -2.15696791928   -2.00000000000
     -2.11070451449   -6.33028254133   -2.15696791928   -2.00000000000
     -6.33028254133   -2.11070451449   -2.15696791928   -2.00000000000
     -4.22049352791    4.22049352791   -4.27562330794    2.00000000000
      4.22049352791    4.22049352791   -4.27562330794    2.00000000000
      4.22049352791   -4.22049352791   -4.27562330794    2.00000000000
     -4.22049352791   -4.22049352791   -4.27562330794    2.00000000000
     -6.32889565859    4.22049352791    0.00000000000   -2.00000000000
     -4.22049352791    6.32889565859    0.00000000000   -2.00000000000
      4.22049352791    6.32889565859    0.00000000000   -2.00000000000
      6.32889565859    4.22049352791    0.00000000000   -2.00000000000
      6.32889565859   -4.22049352791    0.00000000000   -2.00000000000
      4.22049352791   -6.32889565859    0.00000000000   -2.00000000000
     -4.22049352791   -6.32889565859    0.00000000000   -2.00000000000
     -6.32889565859   -4.22049352791    0.00000000000   -2.00000000000
     -6.33074029186    0.00000000000   -4.27562330794   -2.00000000000
      0.00000000000    6.33074029186   -4.27562330794   -2.00000000000
      6.33074029186    0.00000000000   -4.27562330794   -2.00000000000
      0.00000000000   -6.33074029186   -4.27562330794   -2.00000000000
     -6.33125293065    4.22049352791   -2.15218714568    2.00000000000
     -4.22049352791    6.33125293065   -2.15218714568    2.00000000000
      4.22049352791    6.33125293065   -2.15218714568    2.00000000000
      6.33125293065    4.22049352791   -2.15218714568    2.00000000000
      6.33125293065   -4.22049352791   -2.15218714568    2.00000000000
      4.22049352791   -6.33125293065   -2.15218714568    2.00000000000
     -4.22049352791   -6.33125293065   -2.15218714568    2.00000000000
     -6.33125293065   -4.22049352791   -2.15218714568    2.00000000000
     -6.33074029186    2.11024676395   -4.27562330794    2.00000000000
     -2.11024676395    6.33074029186   -4.27562330794    2.00000000000
      2.11024676395    6.33074029186   -4.27562330794    2.00000000000
      6.33074029186    2.11024676395   -4.27562330794    2.00000000000
      6.33074029186   -2.11024676395   -4.27562330794    2.00000000000
      2.11024676395   -6.33074029186   -4.27562330794    2.00000000000
     -2.11024676395   -6.33074029186   -4.27562330794    2.00000000000
     -6.33074029186   -2.11024676395   -4.27562330794    2.00000000000
     -8.44098705582    0.00000000000   -0.00772802266    2.00000000000
      0.00000000000    8.44098705582   -0.00772802266    2.00000000000
      8.44098705582    0.00000000000   -0.00772802266    2.00000000000
      0.00000000000   -8.44098705582   -0.00772802266    2.00000000000
     -8.44098705582    2.12018425659   -0.00205593177   -2.00000000000
     -2.12018425659    8.44098705582   -0.00205593177   -2.00000000000
      2.12018425659    8.44098705582   -0.00205593177   -2.00000000000
      8.44098705582    2.12018425659   -0.00205593177   -2.00000000000
      8.44098705582   -2.12018425659   -0.00205593177   -2.00000000000
      2.12018425659   -8.44098705582   -0.00205593177   -2.00000000000
     -2.12018425659   -8.44098705582   -0.00205593177   -2.00000000000
     -8.44098705582   -2.12018425659   -0.00205593177   -2.00000000000
     -8.44098705582    0.00000000000   -2.14902768389   -2.00000000000
      0.00000000000    8.44098705582   -2.14902768389   -2.00000000000
      8.44098705582    0.00000000000   -2.14902768389   -2.00000000000
      0.00000000000   -8.44098705582   -2.14902768389   -2.00000000000
     -8.44098705582    2.10705287155   -2.14928009216    2.00000000000
     -2.10705287155    8.44098705582   -2.14928009216    2.00000000000
      2.10705287155    8.44098705582   -2.14928009216    2.00000000000
      8.44098705582    2.10705287155   -2.14928009216    2.00000000000
      8.44098705582   -2.10705287155   -2.14928009216    2.00000000000
      2.10705287155   -8.44098705582   -2.14928009216    2.00000000000
     -2.10705287155   -8.44098705582   -2.14928009216    2.00000000000
     -8.44098705582   -2.10705287155   -2.14928009216    2.00000000000
      0.00000000000    0.00000000000   -6.38587007189   -2.00000000000
     -2.11024676395    0.00000000000   -6.38587007189    2.00000000000
      0.00000000000    2.11024676395   -6.38587007189    2.00000000000
      2.11024676395    0.00000000000   -6.38587007189    2.00000000000
      0.00000000000   -2.11024676395   -6.38587007189    2.00000000000
     -2.11024676395    2.11024676395   -6.38587007189   -2.00000000000
      2.11024676395    2.11024676395   -6.38587007189   -2.00000000000
      2.11024676395   -2.11024676395   -6.38587007189   -2.00000000000
     -2.11024676395   -2.11024676395   -6.38587007189   -2.00000000000
     -4.22049352791    0.00000000000   -6.38587007189   -2.00000000000
      0.00000000000    4.22049352791   -6.38587007189   -2.00000000000
      4.22049352791    0.00000000000   -6.38587007189   -2.00000000000
      0.00000000000   -4.22049352791   -6.38587007189   -2.00000000000
     -4.22049352791    2.11024676395   -6.38587007189    2.00000000000
     -2.11024676395    4.22049352791   -6.38587007189    2.00000000000
      2.11024676395    4.22049352791   -6.38587007189    2.00000000000
      4.22049352791    2.11024676395   -6.38587007189    2.00000000000
      4.22049352791   -2.11024676395   -6.38587007189    2.00000000000
      2.11024676395   -4.22049352791   -6.38587007189    2.00000000000
     -2.11024676395   -4.22049352791   -6.38587007189    2.00000000000
     -4.22049352791   -2.11024676395   -6.38587007189    2.00000000000
     -6.33074029186    4.22049352791   -4.27562330794   -2.00000000000
     -4.22049352791    6.33074029186   -4.27562330794   -2.00000000000
      4.22049352791    6.33074029186   -4.27562330794   -2.00000000000
      6.33074029186    4.22049352791   -4.27562330794   -2.00000000000
      6.33074029186   -4.22049352791   -4.27562330794   -2.00000000000
      4.22049352791   -6.33074029186   -4.27562330794   -2.00000000000
     -4.22049352791   -6.33074029186   -4.27562330794   -2.00000000000
     -6.33074029186   -4.22049352791   -4.27562330794   -2.00000000000
     -4.22049352791    4.22049352791   -6.38587007189   -2.00000000000
      4.22049352791    4.22049352791   -6.38587007189   -2.00000000000
      4.22049352791   -4.22049352791   -6.38587007189   -2.00000000000
     -4.22049352791   -4.22049352791   -6.38587007189   -2.00000000000
     -6.32954443328    6.32954443328   -0.05140086690    2.00000000000
      6.32954443328    6.32954443328   -0.05140086690    2.00000000000
      6.32954443328   -6.32954443328   -0.05140086690    2.00000000000
     -6.32954443328   -6.32954443328   -0.05140086690    2.00000000000
     -6.33074029186    0.00000000000   -6.38587007189    2.00000000000
      0.00000000000    6.33074029186   -6.38587007189    2.00000000000
      6.33074029186    0.00000000000   -6.38587007189    2.00000000000
      0.00000000000   -6.33074029186   -6.38587007189    2.00000000000
     -6.33028254133    6.33028254133   -2.15696791928   -2.00000000000
      6.33028254133    6.33028254133   -2.15696791928   -2.00000000000
      6.33028254133   -6.33028254133   -2.15696791928   -2.00000000000
     -6.33028254133   -6.33028254133   -2.15696791928   -2.00000000000
     -6.33074029186    2.11024676395   -6.38587007189   -2.00000000000
     -2.11024676395    6.33074029186   -6.38587007189   -2.00000000000
      2.11024676395    6.33074029186   -6.38587007189   -2.00000000000
      6.33074029186    2.11024676395   -6.38587007189   -2.00000000000
      6.33074029186   -2.11024676395   -6.38587007189   -2.00000000000
      2.11024676395   -6.33074029186   -6.38587007189   -2.00000000000
     -2.11024676395   -6.33074029186   -6.38587007189   -2.00000000000
     -6.33074029186   -2.11024676395   -6.38587007189   -2.00000000000
     -8.44098705582    4.22049352791   -0.05042534122    2.00000000000
     -4.22049352791    8.44098705582   -0.05042534122    2.00000000000
      4.22049352791    8.44098705582   -0.05042534122    2.00000000000
      8.44098705582    4.22049352791   -0.05042534122    2.00000000000
      8.44098705582   -4.22049352791   -0.05042534122    2.00000000000
      4.22049352791   -8.44098705582   -0.05042534122    2.00000000000
     -4.22049352791   -8.44098705582   -0.05042534122    2.00000000000
     -8.44098705582   -4.22049352791   -0.05042534122    2.00000000000
     -8.44098705582    0.00000000000   -4.27562330794    2.00000000000
      0.00000000000    8.44098705582   -4.27562330794    2.00000000000
      8.44098705582    0.00000000000   -4.27562330794    2.00000000000
      0.00000000000   -8.44098705582   -4.27562330794    2.00000000000
     -8.44098705582    4.22049352791   -2.15902521756   -2.00000000000
     -4.22049352791    8.44098705582   -2.15902521756   -2.00000000000
      4.22049352791    8.44098705582   -2.15902521756   -2.00000000000
      8.44098705582    4.22049352791   -2.15902521756   -2.00000000000
      8.44098705582   -4.22049352791   -2.15902521756   -2.00000000000
      4.22049352791   -8.44098705582   -2.15902521756   -2.00000000000
     -4.22049352791   -8.44098705582   -2.15902521756   -2.00000000000
     -8.44098705582   -4.22049352791   -2.15902521756   -2.00000000000
     -8.44098705582    2.11024676395   -4.27562330794   -2.00000000000
     -2.11024676395    8.44098705582   -4.27562330794   -2.00000000000
      2.11024676395    8.44098705582   -4.27562330794   -2.00000000000
      8.44098705582    2.11024676395   -4.27562330794   -2.00000000000
      8.44098705582   -2.11024676395   -4.27562330794   -2.00000000000
      2.11024676395   -8.44098705582   -4.27562330794   -2.00000000000
     -2.11024676395   -8.44098705582   -4.27562330794   -2.00000000000
     -8.44098705582   -2.11024676395   -4.27562330794   -2.00000000000
     -6.33074029186    6.33074029186   -4.27562330794    2.00000000000
      6.33074029186    6.33074029186   -4.27562330794    2.00000000000
      6.33074029186   -6.33074029186   -4.27562330794    2.00000000000
     -6.33074029186   -6.33074029186   -4.27562330794    2.00000000000
     -6.33074029186    4.22049352791   -6.38587007189    2.00000000000
     -4.22049352791    6.33074029186   -6.38587007189    2.00000000000
      4.22049352791    6.33074029186   -6.38587007189    2.00000000000
      6.33074029186    4.22049352791   -6.38587007189    2.00000000000
      6.33074029186   -4.22049352791   -6.38587007189    2.00000000000
      4.22049352791   -6.33074029186   -6.38587007189    2.00000000000
     -4.22049352791   -6.33074029186   -6.38587007189    2.00000000000
     -6.33074029186   -4.22049352791   -6.38587007189    2.00000000000
     -8.44098705582    4.22049352791   -4.27562330794    2.00000000000
     -4.22049352791    8.44098705582   -4.27562330794    2.00000000000
      4.22049352791    8.44098705582   -4.27562330794    2.00000000000
      8.44098705582    4.22049352791   -4.27562330794    2.00000000000
      8.44098705582   -4.22049352791   -4.27562330794    2.00000000000
      4.22049352791   -8.44098705582   -4.27562330794    2.00000000000
     -4.22049352791   -8.44098705582   -4.27562330794    2.00000000000
     -8.44098705582   -4.22049352791   -4.27562330794    2.00000000000
     -8.44098705582    6.32080279923   -0.00205593177   -2.00000000000
     -6.32080279923    8.44098705582   -0.00205593177   -2.00000000000
      6.32080279923    8.44098705582   -0.00205593177   -2.00000000000
      8.44098705582    6.32080279923   -0.00205593177   -2.00000000000
      8.44098705582   -6.32080279923   -0.00205593177   -2.00000000000
      6.32080279923   -8.44098705582   -0.00205593177   -2.00000000000
     -6.32080279923   -8.44098705582   -0.00205593177   -2.00000000000
     -8.44098705582   -6.32080279923   -0.00205593177   -2.00000000000
    -10.56117131241    0.00000000000   -0.00205593177   -2.00000000000
      0.00000000000   10.56117131241   -0.00205593177   -2.00000000000
     10.56117131241    0.00000000000   -0.00205593177   -2.00000000000
      0.00000000000  -10.56117131241   -0.00205593177   -2.00000000000
     -8.44098705582    0.00000000000   -6.38587007189   -2.00000000000
      0.00000000000    8.44098705582   -6.38587007189   -2.00000000000
      8.44098705582    0.00000000000   -6.38587007189   -2.00000000000
      0.00000000000   -8.44098705582   -6.38587007189   -2.00000000000
    -10.55242967836    2.11144262254   -0.05140086690    2.00000000000
     -2.11144262254   10.55242967836   -0.05140086690    2.00000000000
      2.11144262254   10.55242967836   -0.05140086690    2.00000000000
     10.55242967836    2.11144262254   -0.05140086690    2.00000000000
     10.55242967836   -2.11144262254   -0.05140086690    2.00000000000
      2.11144262254  -10.55242967836   -0.05140086690    2.00000000000
     -2.11144262254  -10.55242967836   -0.05140086690    2.00000000000
    -10.55242967836   -2.11144262254   -0.05140086690    2.00000000000
    -10.54803992736    0.00000000000   -2.14928009216    2.00000000000
      0.00000000000   10.54803992736   -2.14928009216    2.00000000000
     10.54803992736    0.00000000000   -2.14928009216    2.00000000000
      0.00000000000  -10.54803992736   -2.14928009216    2.00000000000
     -8.44098705582    6.33393418427   -2.14928009216    2.00000000000
     -6.33393418427    8.44098705582   -2.14928009216    2.00000000000
      6.33393418427    8.44098705582   -2.14928009216    2.00000000000
      8.44098705582    6.33393418427   -2.14928009216    2.00000000000
      8.44098705582   -6.33393418427   -2.14928009216    2.00000000000
      6.33393418427   -8.44098705582   -2.14928009216    2.00000000000
     -6.33393418427   -8.44098705582   -2.14928009216    2.00000000000
     -8.44098705582   -6.33393418427   -2.14928009216    2.00000000000
     -8.44098705582    2.11024676395   -6.38587007189    2.00000000000
     -2.11024676395    8.44098705582   -6.38587007189    2.00000000000
      2.11024676395    8.44098705582   -6.38587007189    2.00000000000
      8.44098705582    2.11024676395   -6.38587007189    2.00000000000
      8.44098705582   -2.11024676395   -6.38587007189    2.00000000000
      2.11024676395   -8.44098705582   -6.38587007189    2.00000000000
     -2.11024676395   -8.44098705582   -6.38587007189    2.00000000000
     -8.44098705582   -2.11024676395   -6.38587007189    2.00000000000
    -10.55169157031    2.11070451449   -2.15696791928   -2.00000000000
     -2.11070451449   10.55169157031   -2.15696791928   -2.00000000000
      2.11070451449   10.55169157031   -2.15696791928   -2.00000000000
     10.55169157031    2.11070451449   -2.15696791928   -2.00000000000
     10.55169157031   -2.11070451449   -2.15696791928   -2.00000000000
      2.11070451449  -10.55169157031   -2.15696791928   -2.00000000000
     -2.11070451449  -10.55169157031   -2.15696791928   -2.00000000000
    -10.55169157031   -2.11070451449   -2.15696791928   -2.00000000000
     -6.33074029186    6.33074029186   -6.38587007189   -2.00000000000
      6.33074029186    6.33074029186   -6.38587007189   -2.00000000000
      6.33074029186   -6.33074029186   -6.38587007189   -2.00000000000
     -6.33074029186   -6.33074029186   -6.38587007189   -2.00000000000
    -10.55307845305    4.22049352791    0.00000000000   -2.00000000000
     -4.22049352791   10.55307845305    0.00000000000   -2.00000000000
      4.22049352791   10.55307845305    0.00000000000   -2.00000000000
     10.55307845305    4.22049352791    0.00000000000   -2.00000000000
     10.55307845305   -4.22049352791    0.00000000000   -2.00000000000
      4.22049352791  -10.55307845305    0.00000000000   -2.00000000000
     -4.22049352791  -10.55307845305    0.00000000000   -2.00000000000
    -10.55307845305   -4.22049352791    0.00000000000   -2.00000000000
    -10.55123381977    0.00000000000   -4.27562330794   -2.00000000000
     -8.44098705582    6.33074029186   -4.27562330794   -2.00000000000
     -6.33074029186    8.44098705582   -4.27562330794   -2.00000000000
      0.00000000000   10.55123381977   -4.27562330794   -2.00000000000
      6.33074029186    8.44098705582   -4.27562330794   -2.00000000000
      8.44098705582    6.33074029186   -4.27562330794   -2.00000000000
     10.55123381977    0.00000000000   -4.27562330794   -2.00000000000
      8.44098705582   -6.33074029186   -4.27562330794   -2.00000000000
      6.33074029186   -8.44098705582   -4.27562330794   -2.00000000000
      0.00000000000  -10.55123381977   -4.27562330794   -2.00000000000
     -6.33074029186   -8.44098705582   -4.27562330794   -2.00000000000
     -8.44098705582   -6.33074029186   -4.27562330794   -2.00000000000
     -8.44098705582    4.22049352791   -6.38587007189   -2.00000000000
     -4.22049352791    8.44098705582   -6.38587007189   -2.00000000000
      4.22049352791    8.44098705582   -6.38587007189   -2.00000000000
      8.44098705582    4.22049352791   -6.38587007189   -2.00000000000
      8.44098705582   -4.22049352791   -6.38587007189   -2.00000000000
      4.22049352791   -8.44098705582   -6.38587007189   -2.00000000000
     -4.22049352791   -8.44098705582   -6.38587007189   -2.00000000000
     -8.44098705582   -4.22049352791   -6.38587007189   -2.00000000000
    -10.55072118099    4.22049352791   -2.15218714568    2.00000000000
     -4.22049352791   10.55072118099   -2.15218714568    2.00000000000
      4.22049352791   10.55072118099   -2.15218714568    2.00000000000
     10.55072118099    4.22049352791   -2.15218714568    2.00000000000
     10.55072118099   -4.22049352791   -2.15218714568    2.00000000000
      4.22049352791  -10.55072118099   -2.15218714568    2.00000000000
     -4.22049352791  -10.55072118099   -2.15218714568    2.00000000000
    -10.55072118099   -4.22049352791   -2.15218714568    2.00000000000
    -10.55123381977    2.11024676395   -4.27562330794    2.00000000000
     -2.11024676395   10.55123381977   -4.27562330794    2.00000000000
      2.11024676395   10.55123381977   -4.27562330794    2.00000000000
     10.55123381977    2.11024676395   -4.27562330794    2.00000000000
     10.55123381977   -2.11024676395   -4.27562330794    2.00000000000
      2.11024676395  -10.55123381977   -4.27562330794    2.00000000000
     -2.11024676395  -10.55123381977   -4.27562330794    2.00000000000
    -10.55123381977   -2.11024676395   -4.27562330794    2.00000000000
     -8.44098705582    8.44098705582   -0.00772802266    2.00000000000
      8.44098705582    8.44098705582   -0.00772802266    2.00000000000
      8.44098705582   -8.44098705582   -0.00772802266    2.00000000000
     -8.44098705582   -8.44098705582   -0.00772802266    2.00000000000
     -8.44098705582    8.44098705582   -2.14902768389   -2.00000000000
      8.44098705582    8.44098705582   -2.14902768389   -2.00000000000
      8.44098705582   -8.44098705582   -2.14902768389   -2.00000000000
     -8.44098705582   -8.44098705582   -2.14902768389   -2.00000000000
    -10.55123381977    4.22049352791   -4.27562330794   -2.00000000000
     -4.22049352791   10.55123381977   -4.27562330794   -2.00000000000
      4.22049352791   10.55123381977   -4.27562330794   -2.00000000000
     10.55123381977    4.22049352791   -4.27562330794   -2.00000000000
     10.55123381977   -4.22049352791   -4.27562330794   -2.00000000000
      4.22049352791  -10.55123381977   -4.27562330794   -2.00000000000
     -4.22049352791  -10.55123381977   -4.27562330794   -2.00000000000
    -10.55123381977   -4.22049352791   -4.27562330794   -2.00000000000
    -10.55242967836    6.32954443328   -0.05140086690    2.00000000000
     -6.32954443328   10.55242967836   -0.05140086690    2.00000000000
      6.32954443328   10.55242967836   -0.05140086690    2.00000000000
     10.55242967836    6.32954443328   -0.05140086690    2.00000000000
     10.55242967836   -6.32954443328   -0.05140086690    2.00000000000
      6.32954443328  -10.55242967836   -0.05140086690    2.00000000000
     -6.32954443328  -10.55242967836   -0.05140086690    2.00000000000
    -10.55242967836   -6.32954443328   -0.05140086690    2.00000000000
    -10.55123381977    0.00000000000   -6.38587007189    2.00000000000
     -8.44098705582    6.33074029186   -6.38587007189    2.00000000000
     -6.33074029186    8.44098705582   -6.38587007189    2.00000000000
      0.00000000000   10.55123381977   -6.38587007189    2.00000000000
      6.33074029186    8.44098705582   -6.38587007189    2.00000000000
      8.44098705582    6.33074029186   -6.38587007189    2.00000000000
     10.55123381977    0.00000000000   -6.38587007189    2.00000000000
      8.44098705582   -6.33074029186   -6.38587007189    2.00000000000
      6.33074029186   -8.44098705582   -6.38587007189    2.00000000000
      0.00000000000  -10.55123381977   -6.38587007189    2.00000000000
     -6.33074029186   -8.44098705582   -6.38587007189    2.00000000000
     -8.44098705582   -6.33074029186   -6.38587007189    2.00000000000
    -10.55169157031    6.33028254133   -2.15696791928   -2.00000000000
     -6.33028254133   10.55169157031   -2.15696791928   -2.00000000000
      6.33028254133   10.55169157031   -2.15696791928   -2.00000000000
     10.55169157031    6.33028254133   -2.15696791928   -2.00000000000
     10.55169157031   -6.33028254133   -2.15696791928   -2.00000000000
      6.33028254133  -10.55169157031   -2.15696791928   -2.00000000000
     -6.33028254133  -10.55169157031   -2.15696791928   -2.00000000000
    -10.55169157031   -6.33028254133   -2.15696791928   -2.00000000000
    -10.55123381977    2.11024676395   -6.38587007189   -2.00000000000
     -2.11024676395   10.55123381977   -6.38587007189   -2.00000000000
      2.11024676395   10.55123381977   -6.38587007189   -2.00000000000
     10.55123381977    2.11024676395   -6.38587007189   -2.00000000000
     10.55123381977   -2.11024676395   -6.38587007189   -2.00000000000
      2.11024676395  -10.55123381977   -6.38587007189   -2.00000000000
     -2.11024676395  -10.55123381977   -6.38587007189   -2.00000000000
    -10.55123381977   -2.11024676395   -6.38587007189   -2.00000000000
    -12.66148058373    0.00000000000   -0.05042534122    2.00000000000
      0.00000000000   12.66148058373   -0.05042534122    2.00000000000
     12.66148058373    0.00000000000   -0.05042534122    2.00000000000
      0.00000000000  -12.66148058373   -0.05042534122    2.00000000000
     -8.44098705582    8.44098705582   -4.27562330794    2.00000000000
      8.44098705582    8.44098705582   -4.27562330794    2.00000000000
      8.44098705582   -8.44098705582   -4.27562330794    2.00000000000
     -8.44098705582   -8.44098705582   -4.27562330794    2.00000000000
    -12.66148058373    2.11209139723    0.00000000000   -2.00000000000
     -2.11209139723   12.66148058373    0.00000000000   -2.00000000000
      2.11209139723   12.66148058373    0.00000000000   -2.00000000000
     12.66148058373    2.11209139723    0.00000000000   -2.00000000000
     12.66148058373   -2.11209139723    0.00000000000   -2.00000000000
      2.11209139723  -12.66148058373    0.00000000000   -2.00000000000
     -2.11209139723  -12.66148058373    0.00000000000   -2.00000000000
    -12.66148058373   -2.11209139723    0.00000000000   -2.00000000000
    -12.66148058373    0.00000000000   -2.15902521756   -2.00000000000
      0.00000000000   12.66148058373   -2.15902521756   -2.00000000000
     12.66148058373    0.00000000000   -2.15902521756   -2.00000000000
      0.00000000000  -12.66148058373   -2.15902521756   -2.00000000000
    -12.66148058373    2.10973412517   -2.15218714568    2.00000000000
     -2.10973412517   12.66148058373   -2.15218714568    2.00000000000
      2.10973412517   12.66148058373   -2.15218714568    2.00000000000
     12.66148058373    2.10973412517   -2.15218714568    2.00000000000
     12.66148058373   -2.10973412517   -2.15218714568    2.00000000000
      2.10973412517  -12.66148058373   -2.15218714568    2.00000000000
     -2.10973412517  -12.66148058373   -2.15218714568    2.00000000000
    -12.66148058373   -2.10973412517   -2.15218714568    2.00000000000
    -10.55123381977    6.33074029186   -4.27562330794    2.00000000000
     -6.33074029186   10.55123381977   -4.27562330794    2.00000000000
      6.33074029186   10.55123381977   -4.27562330794    2.00000000000
     10.55123381977    6.33074029186   -4.27562330794    2.00000000000
     10.55123381977   -6.33074029186   -4.27562330794    2.00000000000
      6.33074029186  -10.55123381977   -4.27562330794    2.00000000000
     -6.33074029186  -10.55123381977   -4.27562330794    2.00000000000
    -10.55123381977   -6.33074029186   -4.27562330794    2.00000000000
    -10.55123381977    4.22049352791   -6.38587007189    2.00000000000
     -4.22049352791   10.55123381977   -6.38587007189    2.00000000000
      4.22049352791   10.55123381977   -6.38587007189    2.00000000000
     10.55123381977    4.22049352791   -6.38587007189    2.00000000000
     10.55123381977   -4.22049352791   -6.38587007189    2.00000000000
      4.22049352791  -10.55123381977   -6.38587007189    2.00000000000
     -4.22049352791  -10.55123381977   -6.38587007189    2.00000000000
    -10.55123381977   -4.22049352791   -6.38587007189    2.00000000000
    -12.66148058373    4.22049352791   -0.04765173215    2.00000000000
     -4.22049352791   12.66148058373   -0.04765173215    2.00000000000
      4.22049352791   12.66148058373   -0.04765173215    2.00000000000
     12.66148058373    4.22049352791   -0.04765173215    2.00000000000
     12.66148058373   -4.22049352791   -0.04765173215    2.00000000000
      4.22049352791  -12.66148058373   -0.04765173215    2.00000000000
     -4.22049352791  -12.66148058373   -0.04765173215    2.00000000000
    -12.66148058373   -4.22049352791   -0.04765173215    2.00000000000
    -12.66148058373    0.00000000000   -4.27562330794    2.00000000000
      0.00000000000   12.66148058373   -4.27562330794    2.00000000000
     12.66148058373    0.00000000000   -4.27562330794    2.00000000000
      0.00000000000  -12.66148058373   -4.27562330794    2.00000000000
    -12.66148058373    4.22049352791   -2.15801787533   -2.00000000000
     -4.22049352791   12.66148058373   -2.15801787533   -2.00000000000
      4.22049352791   12.66148058373   -2.15801787533   -2.00000000000
     12.66148058373    4.22049352791   -2.15801787533   -2.00000000000
     12.66148058373   -4.22049352791   -2.15801787533   -2.00000000000
      4.22049352791  -12.66148058373   -2.15801787533   -2.00000000000
     -4.22049352791  -12.66148058373   -2.15801787533   -2.00000000000
    -12.66148058373   -4.22049352791   -2.15801787533   -2.00000000000
    -10.56117131241    8.44098705582   -0.00205593177   -2.00000000000
     -8.44098705582   10.56117131241   -0.00205593177   -2.00000000000
      8.44098705582   10.56117131241   -0.00205593177   -2.00000000000
     10.56117131241    8.44098705582   -0.00205593177   -2.00000000000
     10.56117131241   -8.44098705582   -0.00205593177   -2.00000000000
      8.44098705582  -10.56117131241   -0.00205593177   -2.00000000000
     -8.44098705582  -10.56117131241   -0.00205593177   -2.00000000000
    -10.56117131241   -8.44098705582   -0.00205593177   -2.00000000000
    -12.66148058373    2.11024676395   -4.27562330794   -2.00000000000
     -2.11024676395   12.66148058373   -4.27562330794   -2.00000000000
      2.11024676395   12.66148058373   -4.27562330794   -2.00000000000
     12.66148058373    2.11024676395   -4.27562330794   -2.00000000000
     12.66148058373   -2.11024676395   -4.27562330794   -2.00000000000
      2.11024676395  -12.66148058373   -4.27562330794   -2.00000000000
     -2.11024676395  -12.66148058373   -4.27562330794   -2.00000000000
    -12.66148058373   -2.11024676395   -4.27562330794   -2.00000000000
     -8.44098705582    8.44098705582   -6.38587007189   -2.00000000000
      8.44098705582    8.44098705582   -6.38587007189   -2.00000000000
      8.44098705582   -8.44098705582   -6.38587007189   -2.00000000000
     -8.44098705582   -8.44098705582   -6.38587007189   -2.00000000000
    -10.54803992736    8.44098705582   -2.14928009216    2.00000000000
     -8.44098705582   10.54803992736   -2.14928009216    2.00000000000
      8.44098705582   10.54803992736   -2.14928009216    2.00000000000
     10.54803992736    8.44098705582   -2.14928009216    2.00000000000
     10.54803992736   -8.44098705582   -2.14928009216    2.00000000000
      8.44098705582  -10.54803992736   -2.14928009216    2.00000000000
     -8.44098705582  -10.54803992736   -2.14928009216    2.00000000000
    -10.54803992736   -8.44098705582   -2.14928009216    2.00000000000
    -10.55123381977    6.33074029186   -6.38587007189   -2.00000000000
     -6.33074029186   10.55123381977   -6.38587007189   -2.00000000000
      6.33074029186   10.55123381977   -6.38587007189   -2.00000000000
     10.55123381977    6.33074029186   -6.38587007189   -2.00000000000
     10.55123381977   -6.33074029186   -6.38587007189   -2.00000000000
      6.33074029186  -10.55123381977   -6.38587007189   -2.00000000000
     -6.33074029186  -10.55123381977   -6.38587007189   -2.00000000000
    -10.55123381977   -6.33074029186   -6.38587007189   -2.00000000000
    -12.66148058373    4.22049352791   -4.27562330794    2.00000000000
     -4.22049352791   12.66148058373   -4.27562330794    2.00000000000
      4.22049352791   12.66148058373   -4.27562330794    2.00000000000
     12.66148058373    4.22049352791   -4.27562330794    2.00000000000
     12.66148058373   -4.22049352791   -4.27562330794    2.00000000000
      4.22049352791  -12.66148058373   -4.27562330794    2.00000000000
     -4.22049352791  -12.66148058373   -4.27562330794    2.00000000000
    -12.66148058373   -4.22049352791   -4.27562330794    2.00000000000
    -12.66148058373    6.32889565859    0.00000000000   -2.00000000000
     -6.32889565859   12.66148058373    0.00000000000   -2.00000000000
      6.32889565859   12.66148058373    0.00000000000   -2.00000000000
     12.66148058373    6.32889565859    0.00000000000   -2.00000000000
     12.66148058373   -6.32889565859    0.00000000000   -2.00000000000
      6.32889565859  -12.66148058373    0.00000000000   -2.00000000000
     -6.32889565859  -12.66148058373    0.00000000000   -2.00000000000
    -12.66148058373   -6.32889565859    0.00000000000   -2.00000000000
    -10.55123381977    8.44098705582   -4.27562330794   -2.00000000000
     -8.44098705582   10.55123381977   -4.27562330794   -2.00000000000
      8.44098705582   10.55123381977   -4.27562330794   -2.00000000000
     10.55123381977    8.44098705582   -4.27562330794   -2.00000000000
     10.55123381977   -8.44098705582   -4.27562330794   -2.00000000000
      8.44098705582  -10.55123381977   -4.27562330794   -2.00000000000
     -8.44098705582  -10.55123381977   -4.27562330794   -2.00000000000
    -10.55123381977   -8.44098705582   -4.27562330794   -2.00000000000
    -12.66148058373    0.00000000000   -6.38587007189   -2.00000000000
      0.00000000000   12.66148058373   -6.38587007189   -2.00000000000
     12.66148058373    0.00000000000   -6.38587007189   -2.00000000000
      0.00000000000  -12.66148058373   -6.38587007189   -2.00000000000
    -12.66148058373    6.33125293065   -2.15218714568    2.00000000000
     -6.33125293065   12.66148058373   -2.15218714568    2.00000000000
      6.33125293065   12.66148058373   -2.15218714568    2.00000000000
     12.66148058373    6.33125293065   -2.15218714568    2.00000000000
     12.66148058373   -6.33125293065   -2.15218714568    2.00000000000
      6.33125293065  -12.66148058373   -2.15218714568    2.00000000000
     -6.33125293065  -12.66148058373   -2.15218714568    2.00000000000
    -12.66148058373   -6.33125293065   -2.15218714568    2.00000000000
    -12.66148058373    2.11024676395   -6.38587007189    2.00000000000
     -2.11024676395   12.66148058373   -6.38587007189    2.00000000000
      2.11024676395   12.66148058373   -6.38587007189    2.00000000000
     12.66148058373    2.11024676395   -6.38587007189    2.00000000000
     12.66148058373   -2.11024676395   -6.38587007189    2.00000000000
      2.11024676395  -12.66148058373   -6.38587007189    2.00000000000
     -2.11024676395  -12.66148058373   -6.38587007189    2.00000000000
    -12.66148058373   -2.11024676395   -6.38587007189    2.00000000000
    -14.76178985505    0.00000000000   -0.00205593177   -2.00000000000
      0.00000000000   14.76178985505   -0.00205593177   -2.00000000000
     14.76178985505    0.00000000000   -0.00205593177   -2.00000000000
      0.00000000000  -14.76178985505   -0.00205593177   -2.00000000000
    -12.66148058373    6.33074029186   -4.27562330794   -2.00000000000
     -6.33074029186   12.66148058373   -4.27562330794   -2.00000000000
      6.33074029186   12.66148058373   -4.27562330794   -2.00000000000
     12.66148058373    6.33074029186   -4.27562330794   -2.00000000000
     12.66148058373   -6.33074029186   -4.27562330794   -2.00000000000
      6.33074029186  -12.66148058373   -4.27562330794   -2.00000000000
     -6.33074029186  -12.66148058373   -4.27562330794   -2.00000000000
    -12.66148058373   -6.33074029186   -4.27562330794   -2.00000000000
    -12.66148058373    4.22049352791   -6.38587007189   -2.00000000000
     -4.22049352791   12.66148058373   -6.38587007189   -2.00000000000
      4.22049352791   12.66148058373   -6.38587007189   -2.00000000000
     12.66148058373    4.22049352791   -6.38587007189   -2.00000000000
     12.66148058373   -4.22049352791   -6.38587007189   -2.00000000000
      4.22049352791  -12.66148058373   -6.38587007189   -2.00000000000
     -4.22049352791  -12.66148058373   -6.38587007189   -2.00000000000
    -12.66148058373   -4.22049352791   -6.38587007189   -2.00000000000
    -14.77053148910    2.11144262254   -0.05140086690    2.00000000000
     -2.11144262254   14.77053148910   -0.05140086690    2.00000000000
      2.11144262254   14.77053148910   -0.05140086690    2.00000000000
     14.77053148910    2.11144262254   -0.05140086690    2.00000000000
     14.77053148910   -2.11144262254   -0.05140086690    2.00000000000
      2.11144262254  -14.77053148910   -0.05140086690    2.00000000000
     -2.11144262254  -14.77053148910   -0.05140086690    2.00000000000
    -14.77053148910   -2.11144262254   -0.05140086690    2.00000000000
    -10.55242967836   10.55242967836   -0.05140086690    2.00000000000
     10.55242967836   10.55242967836   -0.05140086690    2.00000000000
     10.55242967836  -10.55242967836   -0.05140086690    2.00000000000
    -10.55242967836  -10.55242967836   -0.05140086690    2.00000000000
    -14.77492124009    0.00000000000   -2.14928009216    2.00000000000
      0.00000000000   14.77492124009   -2.14928009216    2.00000000000
     14.77492124009    0.00000000000   -2.14928009216    2.00000000000
      0.00000000000  -14.77492124009   -2.14928009216    2.00000000000
    -10.55123381977    8.44098705582   -6.38587007189    2.00000000000
     -8.44098705582   10.55123381977   -6.38587007189    2.00000000000
      8.44098705582   10.55123381977   -6.38587007189    2.00000000000
     10.55123381977    8.44098705582   -6.38587007189    2.00000000000
     10.55123381977   -8.44098705582   -6.38587007189    2.00000000000
      8.44098705582  -10.55123381977   -6.38587007189    2.00000000000
     -8.44098705582  -10.55123381977   -6.38587007189    2.00000000000
    -10.55123381977   -8.44098705582   -6.38587007189    2.00000000000
    -14.77126959714    2.11070451449   -2.15696791928   -2.00000000000
     -2.11070451449   14.77126959714   -2.15696791928   -2.00000000000
      2.11070451449   14.77126959714   -2.15696791928   -2.00000000000
     14.77126959714    2.11070451449   -2.15696791928   -2.00000000000
     14.77126959714   -2.11070451449   -2.15696791928   -2.00000000000
      2.11070451449  -14.77126959714   -2.15696791928   -2.00000000000
     -2.11070451449  -14.77126959714   -2.15696791928   -2.00000000000
    -14.77126959714   -2.11070451449   -2.15696791928   -2.00000000000
    -10.55169157031   10.55169157031   -2.15696791928   -2.00000000000
     10.55169157031   10.55169157031   -2.15696791928   -2.00000000000
     10.55169157031  -10.55169157031   -2.15696791928   -2.00000000000
    -10.55169157031  -10.55169157031   -2.15696791928   -2.00000000000
    -12.66148058373    8.44098705582   -0.05042534122    2.00000000000
     -8.44098705582   12.66148058373   -0.05042534122    2.00000000000
      8.44098705582   12.66148058373   -0.05042534122    2.00000000000
     12.66148058373    8.44098705582   -0.05042534122    2.00000000000
     12.66148058373   -8.44098705582   -0.05042534122    2.00000000000
      8.44098705582  -12.66148058373   -0.05042534122    2.00000000000
     -8.44098705582  -12.66148058373   -0.05042534122    2.00000000000
    -12.66148058373   -8.44098705582   -0.05042534122    2.00000000000
    -14.76988271440    4.22049352791    0.00000000000   -2.00000000000
     -4.22049352791   14.76988271440    0.00000000000   -2.00000000000
      4.22049352791   14.76988271440    0.00000000000   -2.00000000000
     14.76988271440    4.22049352791    0.00000000000   -2.00000000000
     14.76988271440   -4.22049352791    0.00000000000   -2.00000000000
      4.22049352791  -14.76988271440    0.00000000000   -2.00000000000
     -4.22049352791  -14.76988271440    0.00000000000   -2.00000000000
    -14.76988271440   -4.22049352791    0.00000000000   -2.00000000000
    -12.66148058373    8.44098705582   -2.15902521756   -2.00000000000
     -8.44098705582   12.66148058373   -2.15902521756   -2.00000000000
      8.44098705582   12.66148058373   -2.15902521756   -2.00000000000
     12.66148058373    8.44098705582   -2.15902521756   -2.00000000000
     12.66148058373   -8.44098705582   -2.15902521756   -2.00000000000
      8.44098705582  -12.66148058373   -2.15902521756   -2.00000000000
     -8.44098705582  -12.66148058373   -2.15902521756   -2.00000000000
    -12.66148058373   -8.44098705582   -2.15902521756   -2.00000000000
    -14.77172734768    0.00000000000   -4.27562330794   -2.00000000000
      0.00000000000   14.77172734768   -4.27562330794   -2.00000000000
     14.77172734768    0.00000000000   -4.27562330794   -2.00000000000
      0.00000000000  -14.77172734768   -4.27562330794   -2.00000000000
    -14.77223998647    4.22049352791   -2.15218714568    2.00000000000
     -4.22049352791   14.77223998647   -2.15218714568    2.00000000000
      4.22049352791   14.77223998647   -2.15218714568    2.00000000000
     14.77223998647    4.22049352791   -2.15218714568    2.00000000000
     14.77223998647   -4.22049352791   -2.15218714568    2.00000000000
      4.22049352791  -14.77223998647   -2.15218714568    2.00000000000
     -4.22049352791  -14.77223998647   -2.15218714568    2.00000000000
    -14.77223998647   -4.22049352791   -2.15218714568    2.00000000000
    -14.77172734768    2.11024676395   -4.27562330794    2.00000000000
    -10.55123381977   10.55123381977   -4.27562330794    2.00000000000
     -2.11024676395   14.77172734768   -4.27562330794    2.00000000000
      2.11024676395   14.77172734768   -4.27562330794    2.00000000000
     10.55123381977   10.55123381977   -4.27562330794    2.00000000000
     14.77172734768    2.11024676395   -4.27562330794    2.00000000000
     14.77172734768   -2.11024676395   -4.27562330794    2.00000000000
     10.55123381977  -10.55123381977   -4.27562330794    2.00000000000
      2.11024676395  -14.77172734768   -4.27562330794    2.00000000000
     -2.11024676395  -14.77172734768   -4.27562330794    2.00000000000
    -10.55123381977  -10.55123381977   -4.27562330794    2.00000000000
    -14.77172734768   -2.11024676395   -4.27562330794    2.00000000000
    -12.66148058373    6.33074029186   -6.38587007189    2.00000000000
     -6.33074029186   12.66148058373   -6.38587007189    2.00000000000
      6.33074029186   12.66148058373   -6.38587007189    2.00000000000
     12.66148058373    6.33074029186   -6.38587007189    2.00000000000
     12.66148058373   -6.33074029186   -6.38587007189    2.00000000000
      6.33074029186  -12.66148058373   -6.38587007189    2.00000000000
     -6.33074029186  -12.66148058373   -6.38587007189    2.00000000000
    -12.66148058373   -6.33074029186   -6.38587007189    2.00000000000
    -12.66148058373    8.44098705582   -4.27562330794    2.00000000000
     -8.44098705582   12.66148058373   -4.27562330794    2.00000000000
      8.44098705582   12.66148058373   -4.27562330794    2.00000000000
     12.66148058373    8.44098705582   -4.27562330794    2.00000000000
     12.66148058373   -8.44098705582   -4.27562330794    2.00000000000
      8.44098705582  -12.66148058373   -4.27562330794    2.00000000000
     -8.44098705582  -12.66148058373   -4.27562330794    2.00000000000
    -12.66148058373   -8.44098705582   -4.27562330794    2.00000000000
    -14.77172734768    4.22049352791   -4.27562330794   -2.00000000000
     -4.22049352791   14.77172734768   -4.27562330794   -2.00000000000
      4.22049352791   14.77172734768   -4.27562330794   -2.00000000000
     14.77172734768    4.22049352791   -4.27562330794   -2.00000000000
     14.77172734768   -4.22049352791   -4.27562330794   -2.00000000000
      4.22049352791  -14.77172734768   -4.27562330794   -2.00000000000
     -4.22049352791  -14.77172734768   -4.27562330794   -2.00000000000
    -14.77172734768   -4.22049352791   -4.27562330794   -2.00000000000
    -14.77053148910    6.32954443328   -0.05140086690    2.00000000000
     -6.32954443328   14.77053148910   -0.05140086690    2.00000000000
      6.32954443328   14.77053148910   -0.05140086690    2.00000000000
     14.77053148910    6.32954443328   -0.05140086690    2.00000000000
     14.77053148910   -6.32954443328   -0.05140086690    2.00000000000
      6.32954443328  -14.77053148910   -0.05140086690    2.00000000000
     -6.32954443328  -14.77053148910   -0.05140086690    2.00000000000
    -14.77053148910   -6.32954443328   -0.05140086690    2.00000000000
    -14.77172734768    0.00000000000   -6.38587007189    2.00000000000
      0.00000000000   14.77172734768   -6.38587007189    2.00000000000
     14.77172734768    0.00000000000   -6.38587007189    2.00000000000
      0.00000000000  -14.77172734768   -6.38587007189    2.00000000000
    -14.77126959714    6.33028254133   -2.15696791928   -2.00000000000
     -6.33028254133   14.77126959714   -2.15696791928   -2.00000000000
      6.33028254133   14.77126959714   -2.15696791928   -2.00000000000
     14.77126959714    6.33028254133   -2.15696791928   -2.00000000000
     14.77126959714   -6.33028254133   -2.15696791928   -2.00000000000
      6.33028254133  -14.77126959714   -2.15696791928   -2.00000000000
     -6.33028254133  -14.77126959714   -2.15696791928   -2.00000000000
    -14.77126959714   -6.33028254133   -2.15696791928   -2.00000000000
    -14.77172734768    2.11024676395   -6.38587007189   -2.00000000000
    -10.55123381977   10.55123381977   -6.38587007189   -2.00000000000
     -2.11024676395   14.77172734768   -6.38587007189   -2.00000000000
      2.11024676395   14.77172734768   -6.38587007189   -2.00000000000
     10.55123381977   10.55123381977   -6.38587007189   -2.00000000000
     14.77172734768    2.11024676395   -6.38587007189   -2.00000000000
     14.77172734768   -2.11024676395   -6.38587007189   -2.00000000000
     10.55123381977  -10.55123381977   -6.38587007189   -2.00000000000
      2.11024676395  -14.77172734768   -6.38587007189   -2.00000000000
     -2.11024676395  -14.77172734768   -6.38587007189   -2.00000000000
    -10.55123381977  -10.55123381977   -6.38587007189   -2.00000000000
    -14.77172734768   -2.11024676395   -6.38587007189   -2.00000000000
    -12.66148058373   10.55307845305    0.00000000000   -2.00000000000
    -10.55307845305   12.66148058373    0.00000000000   -2.00000000000
     10.55307845305   12.66148058373    0.00000000000   -2.00000000000
     12.66148058373   10.55307845305    0.00000000000   -2.00000000000
     12.66148058373  -10.55307845305    0.00000000000   -2.00000000000
     10.55307845305  -12.66148058373    0.00000000000   -2.00000000000
    -10.55307845305  -12.66148058373    0.00000000000   -2.00000000000
    -12.66148058373  -10.55307845305    0.00000000000   -2.00000000000
    -12.66148058373    8.44098705582   -6.38587007189   -2.00000000000
     -8.44098705582   12.66148058373   -6.38587007189   -2.00000000000
      8.44098705582   12.66148058373   -6.38587007189   -2.00000000000
     12.66148058373    8.44098705582   -6.38587007189   -2.00000000000
     12.66148058373   -8.44098705582   -6.38587007189   -2.00000000000
      8.44098705582  -12.66148058373   -6.38587007189   -2.00000000000
     -8.44098705582  -12.66148058373   -6.38587007189   -2.00000000000
    -12.66148058373   -8.44098705582   -6.38587007189   -2.00000000000
    -12.66148058373   10.55072118099   -2.15218714568    2.00000000000
    -10.55072118099   12.66148058373   -2.15218714568    2.00000000000
     10.55072118099   12.66148058373   -2.15218714568    2.00000000000
     12.66148058373   10.55072118099   -2.15218714568    2.00000000000
     12.66148058373  -10.55072118099   -2.15218714568    2.00000000000
     10.55072118099  -12.66148058373   -2.15218714568    2.00000000000
    -10.55072118099  -12.66148058373   -2.15218714568    2.00000000000
    -12.66148058373  -10.55072118099   -2.15218714568    2.00000000000
    -14.77172734768    6.33074029186   -4.27562330794    2.00000000000
     -6.33074029186   14.77172734768   -4.27562330794    2.00000000000
      6.33074029186   14.77172734768   -4.27562330794    2.00000000000
     14.77172734768    6.33074029186   -4.27562330794    2.00000000000
     14.77172734768   -6.33074029186   -4.27562330794    2.00000000000
      6.33074029186  -14.77172734768   -4.27562330794    2.00000000000
     -6.33074029186  -14.77172734768   -4.27562330794    2.00000000000
    -14.77172734768   -6.33074029186   -4.27562330794    2.00000000000
    -14.77172734768    4.22049352791   -6.38587007189    2.00000000000
     -4.22049352791   14.77172734768   -6.38587007189    2.00000000000
      4.22049352791   14.77172734768   -6.38587007189    2.00000000000
     14.77172734768    4.22049352791   -6.38587007189    2.00000000000
     14.77172734768   -4.22049352791   -6.38587007189    2.00000000000
      4.22049352791  -14.77172734768   -6.38587007189    2.00000000000
     -4.22049352791  -14.77172734768   -6.38587007189    2.00000000000
    -14.77172734768   -4.22049352791   -6.38587007189    2.00000000000
    -16.88197411163    0.00000000000   -0.00772802266    2.00000000000
      0.00000000000   16.88197411163   -0.00772802266    2.00000000000
     16.88197411163    0.00000000000   -0.00772802266    2.00000000000
      0.00000000000  -16.88197411163   -0.00772802266    2.00000000000
    -14.76178985505    8.44098705582   -0.00205593177   -2.00000000000
     -8.44098705582   14.76178985505   -0.00205593177   -2.00000000000
      8.44098705582   14.76178985505   -0.00205593177   -2.00000000000
     14.76178985505    8.44098705582   -0.00205593177   -2.00000000000
     14.76178985505   -8.44098705582   -0.00205593177   -2.00000000000
      8.44098705582  -14.76178985505   -0.00205593177   -2.00000000000
     -8.44098705582  -14.76178985505   -0.00205593177   -2.00000000000
    -14.76178985505   -8.44098705582   -0.00205593177   -2.00000000000
    -16.88197411163    2.12018425659   -0.00205593177   -2.00000000000
     -2.12018425659   16.88197411163   -0.00205593177   -2.00000000000
      2.12018425659   16.88197411163   -0.00205593177   -2.00000000000
     16.88197411163    2.12018425659   -0.00205593177   -2.00000000000
     16.88197411163   -2.12018425659   -0.00205593177   -2.00000000000
      2.12018425659  -16.88197411163   -0.00205593177   -2.00000000000
     -2.12018425659  -16.88197411163   -0.00205593177   -2.00000000000
    -16.88197411163   -2.12018425659   -0.00205593177   -2.00000000000
    -16.88197411163    0.00000000000   -2.14902768389   -2.00000000000
      0.00000000000   16.88197411163   -2.14902768389   -2.00000000000
     16.88197411163    0.00000000000   -2.14902768389   -2.00000000000
      0.00000000000  -16.88197411163   -2.14902768389   -2.00000000000
    -12.66148058373   10.55123381977   -4.27562330794   -2.00000000000
    -10.55123381977   12.66148058373   -4.27562330794   -2.00000000000
     10.55123381977   12.66148058373   -4.27562330794   -2.00000000000
     12.66148058373   10.55123381977   -4.27562330794   -2.00000000000
     12.66148058373  -10.55123381977   -4.27562330794   -2.00000000000
     10.55123381977  -12.66148058373   -4.27562330794   -2.00000000000
    -10.55123381977  -12.66148058373   -4.27562330794   -2.00000000000
    -12.66148058373  -10.55123381977   -4.27562330794   -2.00000000000
    -16.88197411163    2.10705287155   -2.14928009216    2.00000000000
     -2.10705287155   16.88197411163   -2.14928009216    2.00000000000
      2.10705287155   16.88197411163   -2.14928009216    2.00000000000
     16.88197411163    2.10705287155   -2.14928009216    2.00000000000
     16.88197411163   -2.10705287155   -2.14928009216    2.00000000000
      2.10705287155  -16.88197411163   -2.14928009216    2.00000000000
     -2.10705287155  -16.88197411163   -2.14928009216    2.00000000000
    -16.88197411163   -2.10705287155   -2.14928009216    2.00000000000
    -14.77492124009    8.44098705582   -2.14928009216    2.00000000000
     -8.44098705582   14.77492124009   -2.14928009216    2.00000000000
      8.44098705582   14.77492124009   -2.14928009216    2.00000000000
     14.77492124009    8.44098705582   -2.14928009216    2.00000000000
     14.77492124009   -8.44098705582   -2.14928009216    2.00000000000
      8.44098705582  -14.77492124009   -2.14928009216    2.00000000000
     -8.44098705582  -14.77492124009   -2.14928009216    2.00000000000
    -14.77492124009   -8.44098705582   -2.14928009216    2.00000000000
    -14.77172734768    6.33074029186   -6.38587007189   -2.00000000000
     -6.33074029186   14.77172734768   -6.38587007189   -2.00000000000
      6.33074029186   14.77172734768   -6.38587007189   -2.00000000000
     14.77172734768    6.33074029186   -6.38587007189   -2.00000000000
     14.77172734768   -6.33074029186   -6.38587007189   -2.00000000000
      6.33074029186  -14.77172734768   -6.38587007189   -2.00000000000
     -6.33074029186  -14.77172734768   -6.38587007189   -2.00000000000
    -14.77172734768   -6.33074029186   -6.38587007189   -2.00000000000
    -16.88197411163    4.22049352791   -0.05042534122    2.00000000000
     -4.22049352791   16.88197411163   -0.05042534122    2.00000000000
      4.22049352791   16.88197411163   -0.05042534122    2.00000000000
     16.88197411163    4.22049352791   -0.05042534122    2.00000000000
     16.88197411163   -4.22049352791   -0.05042534122    2.00000000000
      4.22049352791  -16.88197411163   -0.05042534122    2.00000000000
     -4.22049352791  -16.88197411163   -0.05042534122    2.00000000000
    -16.88197411163   -4.22049352791   -0.05042534122    2.00000000000
    -16.88197411163    0.00000000000   -4.27562330794    2.00000000000
      0.00000000000   16.88197411163   -4.27562330794    2.00000000000
     16.88197411163    0.00000000000   -4.27562330794    2.00000000000
      0.00000000000  -16.88197411163   -4.27562330794    2.00000000000
    -16.88197411163    4.22049352791   -2.15902521756   -2.00000000000
     -4.22049352791   16.88197411163   -2.15902521756   -2.00000000000
      4.22049352791   16.88197411163   -2.15902521756   -2.00000000000
     16.88197411163    4.22049352791   -2.15902521756   -2.00000000000
     16.88197411163   -4.22049352791   -2.15902521756   -2.00000000000
      4.22049352791  -16.88197411163   -2.15902521756   -2.00000000000
     -4.22049352791  -16.88197411163   -2.15902521756   -2.00000000000
    -16.88197411163   -4.22049352791   -2.15902521756   -2.00000000000
    -16.88197411163    2.11024676395   -4.27562330794   -2.00000000000
    -14.77172734768    8.44098705582   -4.27562330794   -2.00000000000
     -8.44098705582   14.77172734768   -4.27562330794   -2.00000000000
     -2.11024676395   16.88197411163   -4.27562330794   -2.00000000000
      2.11024676395   16.88197411163   -4.27562330794   -2.00000000000
      8.44098705582   14.77172734768   -4.27562330794   -2.00000000000
     14.77172734768    8.44098705582   -4.27562330794   -2.00000000000
     16.88197411163    2.11024676395   -4.27562330794   -2.00000000000
     16.88197411163   -2.11024676395   -4.27562330794   -2.00000000000
     14.77172734768   -8.44098705582   -4.27562330794   -2.00000000000
      8.44098705582  -14.77172734768   -4.27562330794   -2.00000000000
      2.11024676395  -16.88197411163   -4.27562330794   -2.00000000000
     -2.11024676395  -16.88197411163   -4.27562330794   -2.00000000000
     -8.44098705582  -14.77172734768   -4.27562330794   -2.00000000000
    -14.77172734768   -8.44098705582   -4.27562330794   -2.00000000000
    -16.88197411163   -2.11024676395   -4.27562330794   -2.00000000000
    -12.66148058373   10.55123381977   -6.38587007189    2.00000000000
    -10.55123381977   12.66148058373   -6.38587007189    2.00000000000
     10.55123381977   12.66148058373   -6.38587007189    2.00000000000
     12.66148058373   10.55123381977   -6.38587007189    2.00000000000
     12.66148058373  -10.55123381977   -6.38587007189    2.00000000000
     10.55123381977  -12.66148058373   -6.38587007189    2.00000000000
    -10.55123381977  -12.66148058373   -6.38587007189    2.00000000000
    -12.66148058373  -10.55123381977   -6.38587007189    2.00000000000
    -12.66148058373   12.66148058373   -0.04765173215    2.00000000000
     12.66148058373   12.66148058373   -0.04765173215    2.00000000000
     12.66148058373  -12.66148058373   -0.04765173215    2.00000000000
    -12.66148058373  -12.66148058373   -0.04765173215    2.00000000000
    -16.88197411163    4.22049352791   -4.27562330794    2.00000000000
     -4.22049352791   16.88197411163   -4.27562330794    2.00000000000
      4.22049352791   16.88197411163   -4.27562330794    2.00000000000
     16.88197411163    4.22049352791   -4.27562330794    2.00000000000
     16.88197411163   -4.22049352791   -4.27562330794    2.00000000000
      4.22049352791  -16.88197411163   -4.27562330794    2.00000000000
     -4.22049352791  -16.88197411163   -4.27562330794    2.00000000000
    -16.88197411163   -4.22049352791   -4.27562330794    2.00000000000
    -16.88197411163    6.32080279923   -0.00205593177   -2.00000000000
     -6.32080279923   16.88197411163   -0.00205593177   -2.00000000000
      6.32080279923   16.88197411163   -0.00205593177   -2.00000000000
     16.88197411163    6.32080279923   -0.00205593177   -2.00000000000
     16.88197411163   -6.32080279923   -0.00205593177   -2.00000000000
      6.32080279923  -16.88197411163   -0.00205593177   -2.00000000000
     -6.32080279923  -16.88197411163   -0.00205593177   -2.00000000000
    -16.88197411163   -6.32080279923   -0.00205593177   -2.00000000000
    -12.66148058373   12.66148058373   -2.15801787533   -2.00000000000
     12.66148058373   12.66148058373   -2.15801787533   -2.00000000000
     12.66148058373  -12.66148058373   -2.15801787533   -2.00000000000
    -12.66148058373  -12.66148058373   -2.15801787533   -2.00000000000
    -16.88197411163    0.00000000000   -6.38587007189   -2.00000000000
      0.00000000000   16.88197411163   -6.38587007189   -2.00000000000
     16.88197411163    0.00000000000   -6.38587007189   -2.00000000000
      0.00000000000  -16.88197411163   -6.38587007189   -2.00000000000
    -14.77053148910   10.55242967836   -0.05140086690    2.00000000000
    -10.55242967836   14.77053148910   -0.05140086690    2.00000000000
     10.55242967836   14.77053148910   -0.05140086690    2.00000000000
     14.77053148910   10.55242967836   -0.05140086690    2.00000000000
     14.77053148910  -10.55242967836   -0.05140086690    2.00000000000
     10.55242967836  -14.77053148910   -0.05140086690    2.00000000000
    -10.55242967836  -14.77053148910   -0.05140086690    2.00000000000
    -14.77053148910  -10.55242967836   -0.05140086690    2.00000000000
    -16.88197411163    6.33393418427   -2.14928009216    2.00000000000
     -6.33393418427   16.88197411163   -2.14928009216    2.00000000000
      6.33393418427   16.88197411163   -2.14928009216    2.00000000000
     16.88197411163    6.33393418427   -2.14928009216    2.00000000000
     16.88197411163   -6.33393418427   -2.14928009216    2.00000000000
      6.33393418427  -16.88197411163   -2.14928009216    2.00000000000
     -6.33393418427  -16.88197411163   -2.14928009216    2.00000000000
    -16.88197411163   -6.33393418427   -2.14928009216    2.00000000000
    -16.88197411163    2.11024676395   -6.38587007189    2.00000000000
    -14.77172734768    8.44098705582   -6.38587007189    2.00000000000
     -8.44098705582   14.77172734768   -6.38587007189    2.00000000000
     -2.11024676395   16.88197411163   -6.38587007189    2.00000000000
      2.11024676395   16.88197411163   -6.38587007189    2.00000000000
      8.44098705582   14.77172734768   -6.38587007189    2.00000000000
     14.77172734768    8.44098705582   -6.38587007189    2.00000000000
     16.88197411163    2.11024676395   -6.38587007189    2.00000000000
     16.88197411163   -2.11024676395   -6.38587007189    2.00000000000
     14.77172734768   -8.44098705582   -6.38587007189    2.00000000000
      8.44098705582  -14.77172734768   -6.38587007189    2.00000000000
      2.11024676395  -16.88197411163   -6.38587007189    2.00000000000
     -2.11024676395  -16.88197411163   -6.38587007189    2.00000000000
     -8.44098705582  -14.77172734768   -6.38587007189    2.00000000000
    -14.77172734768   -8.44098705582   -6.38587007189    2.00000000000
    -16.88197411163   -2.11024676395   -6.38587007189    2.00000000000
    -14.77126959714   10.55169157031   -2.15696791928   -2.00000000000
    -10.55169157031   14.77126959714   -2.15696791928   -2.00000000000
     10.55169157031   14.77126959714   -2.15696791928   -2.00000000000
     14.77126959714   10.55169157031   -2.15696791928   -2.00000000000
     14.77126959714  -10.55169157031   -2.15696791928   -2.00000000000
     10.55169157031  -14.77126959714   -2.15696791928   -2.00000000000
    -10.55169157031  -14.77126959714   -2.15696791928   -2.00000000000
    -14.77126959714  -10.55169157031   -2.15696791928   -2.00000000000
    -12.66148058373   12.66148058373   -4.27562330794    2.00000000000
     12.66148058373   12.66148058373   -4.27562330794    2.00000000000
     12.66148058373  -12.66148058373   -4.27562330794    2.00000000000
    -12.66148058373  -12.66148058373   -4.27562330794    2.00000000000
    -16.88197411163    6.33074029186   -4.27562330794   -2.00000000000
     -6.33074029186   16.88197411163   -4.27562330794   -2.00000000000
      6.33074029186   16.88197411163   -4.27562330794   -2.00000000000
     16.88197411163    6.33074029186   -4.27562330794   -2.00000000000
     16.88197411163   -6.33074029186   -4.27562330794   -2.00000000000
      6.33074029186  -16.88197411163   -4.27562330794   -2.00000000000
     -6.33074029186  -16.88197411163   -4.27562330794   -2.00000000000
    -16.88197411163   -6.33074029186   -4.27562330794   -2.00000000000
    -16.88197411163    4.22049352791   -6.38587007189   -2.00000000000
     -4.22049352791   16.88197411163   -6.38587007189   -2.00000000000
      4.22049352791   16.88197411163   -6.38587007189   -2.00000000000
     16.88197411163    4.22049352791   -6.38587007189   -2.00000000000
     16.88197411163   -4.22049352791   -6.38587007189   -2.00000000000
      4.22049352791  -16.88197411163   -6.38587007189   -2.00000000000
     -4.22049352791  -16.88197411163   -6.38587007189   -2.00000000000
    -16.88197411163   -4.22049352791   -6.38587007189   -2.00000000000
    -14.77172734768   10.55123381977   -4.27562330794    2.00000000000
    -10.55123381977   14.77172734768   -4.27562330794    2.00000000000
     10.55123381977   14.77172734768   -4.27562330794    2.00000000000
     14.77172734768   10.55123381977   -4.27562330794    2.00000000000
     14.77172734768  -10.55123381977   -4.27562330794    2.00000000000
     10.55123381977  -14.77172734768   -4.27562330794    2.00000000000
    -10.55123381977  -14.77172734768   -4.27562330794    2.00000000000
    -14.77172734768  -10.55123381977   -4.27562330794    2.00000000000
    -16.88197411163    8.44098705582   -0.00772802266    2.00000000000
     -8.44098705582   16.88197411163   -0.00772802266    2.00000000000
      8.44098705582   16.88197411163   -0.00772802266    2.00000000000
     16.88197411163    8.44098705582   -0.00772802266    2.00000000000
     16.88197411163   -8.44098705582   -0.00772802266    2.00000000000
      8.44098705582  -16.88197411163   -0.00772802266    2.00000000000
     -8.44098705582  -16.88197411163   -0.00772802266    2.00000000000
    -16.88197411163   -8.44098705582   -0.00772802266    2.00000000000
    -16.88197411163    8.44098705582   -2.14902768389   -2.00000000000
     -8.44098705582   16.88197411163   -2.14902768389   -2.00000000000
      8.44098705582   16.88197411163   -2.14902768389   -2.00000000000
     16.88197411163    8.44098705582   -2.14902768389   -2.00000000000
     16.88197411163   -8.44098705582   -2.14902768389   -2.00000000000
      8.44098705582  -16.88197411163   -2.14902768389   -2.00000000000
     -8.44098705582  -16.88197411163   -2.14902768389   -2.00000000000
    -16.88197411163   -8.44098705582   -2.14902768389   -2.00000000000
    -19.00215836822    0.00000000000   -0.00205593177   -2.00000000000
      0.00000000000   19.00215836822   -0.00205593177   -2.00000000000
     19.00215836822    0.00000000000   -0.00205593177   -2.00000000000
      0.00000000000  -19.00215836822   -0.00205593177   -2.00000000000
    -12.66148058373   12.66148058373   -6.38587007189   -2.00000000000
     12.66148058373   12.66148058373   -6.38587007189   -2.00000000000
     12.66148058373  -12.66148058373   -6.38587007189   -2.00000000000
    -12.66148058373  -12.66148058373   -6.38587007189   -2.00000000000
    -18.98902698318    0.00000000000   -2.14928009216    2.00000000000
      0.00000000000   18.98902698318   -2.14928009216    2.00000000000
     18.98902698318    0.00000000000   -2.14928009216    2.00000000000
      0.00000000000  -18.98902698318   -2.14928009216    2.00000000000
    -18.99341673417    2.11144262254   -0.05140086690    2.00000000000
     -2.11144262254   18.99341673417   -0.05140086690    2.00000000000
      2.11144262254   18.99341673417   -0.05140086690    2.00000000000
     18.99341673417    2.11144262254   -0.05140086690    2.00000000000
     18.99341673417   -2.11144262254   -0.05140086690    2.00000000000
      2.11144262254  -18.99341673417   -0.05140086690    2.00000000000
     -2.11144262254  -18.99341673417   -0.05140086690    2.00000000000
    -18.99341673417   -2.11144262254   -0.05140086690    2.00000000000
    -16.88197411163    6.33074029186   -6.38587007189    2.00000000000
     -6.33074029186   16.88197411163   -6.38587007189    2.00000000000
      6.33074029186   16.88197411163   -6.38587007189    2.00000000000
     16.88197411163    6.33074029186   -6.38587007189    2.00000000000
     16.88197411163   -6.33074029186   -6.38587007189    2.00000000000
      6.33074029186  -16.88197411163   -6.38587007189    2.00000000000
     -6.33074029186  -16.88197411163   -6.38587007189    2.00000000000
    -16.88197411163   -6.33074029186   -6.38587007189    2.00000000000
    -18.99267862613    2.11070451449   -2.15696791928   -2.00000000000
     -2.11070451449   18.99267862613   -2.15696791928   -2.00000000000
      2.11070451449   18.99267862613   -2.15696791928   -2.00000000000
     18.99267862613    2.11070451449   -2.15696791928   -2.00000000000
     18.99267862613   -2.11070451449   -2.15696791928   -2.00000000000
      2.11070451449  -18.99267862613   -2.15696791928   -2.00000000000
[...]
dropped smallnorm   502   503   5.28452601E-06
 tol*100>norm                   513  1.561790699091517E-005
 tol*100>norm                   514  1.618503569483804E-005
 tol*100>norm                   515  1.619898207710310E-005
dropped smallnorm   921   923   5.23793009E-06
 tol*100>norm                   933  1.556828081547228E-005
 tol*100>norm                   934  1.604383883856802E-005
 tol*100>norm                   935  1.653014875096454E-005
 small norm                   512  1.561790699091480E-005
 small norm                   513  1.618503569483802E-005
 small norm                   514  1.619898207710326E-005
 small norm                   931  1.556828081547201E-005
 small norm                   932  1.604383883856799E-005
 small norm                   933  1.653014875096488E-005
 Number of Cholesky vectors:      6
 MP2 energy in LIS [au]:         -0.070085776529
 Correction for frozen LNO [au]: -0.000247991703     (0.353%)
 Number of NAFs:                466  (10.48%)
 CPU time [min]: 19596.388                   Wall time [min]:   588.456
 

 Direct DF-CCSD(T) calculation
 
 Convergence criterion:  1.0E-05
 
 Number of occupied/virtual/auxiliary orbitals:    37   132   466
    725.75 MB is the minimal memory requirement for (T)
    516.04 MB is the minimal memory requirement for CCSD
 
 MP2 correlation energy [au]:       -1.246490590495
 
 LMP2 domain correlation energy contribution [au]:       -0.070086424415
 
 CPU time [min]: 19596.775                   Wall time [min]:   588.481
 
 
 Starting CCSD iterations...
 
                     Residual norm       Correlation Energy
 Iteration  1        0.249159804567       -1.233879905261
 Iteration  2        0.067436770320       -1.260829716098
 Iteration  3        0.023387294371       -1.265602298053
 Iteration  4        0.004658411190       -1.265543633301
 Iteration  5        0.001383295999       -1.265555161466
 Iteration  6        0.000314349485       -1.265573557653
 Iteration  7        0.000104824332       -1.265569420760
 Iteration  8        0.000029498756       -1.265567721674
 
 CCSD iteration has converged in  8 steps.
     1640.53 MB memory was utilized by CCSD
 
 T1 diagnostic:      1.131E-02            D1 diagnostic:      3.886E-02
 
 T1 contribution [au]:                         0.000000000000
 CCSD correlation energy [au]:                -0.069774376197
 
 CPU time [min]: 19611.317                   Wall time [min]:   588.964
 
 Calculation of (T) correction...
 
 Laplace threshold, nquadmin:  1.00E-03   4
 Number of quadrature points:    4
 
     1440.31 MB memory is utilized for (T)

 0%       25%       50%       75%       100%
 |---------|---------|---------|---------| 
 
 (T) correction [au]:                   -0.002707889372
 CCSD(T) correlation energy [au]:       -0.072482265569
 
 CPU time [min]: 19633.816                   Wall time [min]:   589.537
 
 MO:   134
 Number of atoms in domain:      36
 Number of atomic orbitals:    1773
 Number of atoms for local DF:   36
 Number of fitting functions:  4446 (100.00%)
 Warning: drop high-lying PAOs                     9
 Number of occupied orbitals:    75
 Number of virtual  orbitals:  1594
 Number of Cholesky vectors:      8
 MP2 energy in ED [au]:          -0.070332413340
 Number of occupied LNOs:        37  (49.33%)
 Number of virtual  LNOs:       132   (8.28%)
dropped smallnorm   561   562   5.28475638E-06
 tol*100>norm                   572  1.561758063063675E-005
 tol*100>norm                   573  1.620112500810688E-005
 tol*100>norm                   574  1.619378268188612E-005
dropped smallnorm   980   982   5.25532898E-06
 tol*100>norm                   992  1.558153105443385E-005
 tol*100>norm                   993  1.652105474383236E-005
 tol*100>norm                   994  1.632592246613595E-005
 small norm                   571  1.561758063063689E-005
 small norm                   572  1.620112500810689E-005
 small norm                   573  1.619378268188642E-005
 small norm                   990  1.558153105443366E-005
 small norm                   991  1.652105474383242E-005
 small norm                   992  1.632592246613601E-005
 Number of Cholesky vectors:      6
 MP2 energy in LIS [au]:         -0.070085986677
 Correction for frozen LNO [au]: -0.000246426663     (0.350%)
 Number of NAFs:                466  (10.48%)
 CPU time [min]: 19771.443                   Wall time [min]:   593.674
 

 Direct DF-CCSD(T) calculation
 
 Convergence criterion:  1.0E-05
 
 Number of occupied/virtual/auxiliary orbitals:    37   132   466
    725.75 MB is the minimal memory requirement for (T)
    516.04 MB is the minimal memory requirement for CCSD
 
 MP2 correlation energy [au]:       -1.246407118195
 
 LMP2 domain correlation energy contribution [au]:       -0.070086629144
 
 CPU time [min]: 19771.839                   Wall time [min]:   593.698
 
 
 Starting CCSD iterations...
 
                     Residual norm       Correlation Energy
 Iteration  1        0.249146027535       -1.233821818523
 Iteration  2        0.067427133760       -1.260766543519
 Iteration  3        0.023383477276       -1.265537630229
 Iteration  4        0.004656646453       -1.265478911710
 Iteration  5        0.001382699094       -1.265490468607
 Iteration  6        0.000314121014       -1.265508853411
 Iteration  7        0.000104723968       -1.265504722981
 Iteration  8        0.000029468618       -1.265503026656
 
 CCSD iteration has converged in  8 steps.
     1640.53 MB memory was utilized by CCSD
 
 T1 diagnostic:      1.131E-02            D1 diagnostic:      3.885E-02
 
 T1 contribution [au]:                         0.000000000000
 CCSD correlation energy [au]:                -0.069774595306
 
 CPU time [min]: 19786.505                   Wall time [min]:   594.184
 
 Calculation of (T) correction...
 
 Laplace threshold, nquadmin:  1.00E-03   4
 Number of quadrature points:    4
 
     1440.31 MB memory is utilized for (T)

 0%       25%       50%       75%       100%
 |---------|---------|---------|---------| 
 
 (T) correction [au]:                   -0.002707878900
 CCSD(T) correlation energy [au]:       -0.072482474206
 
 CPU time [min]: 19808.427                   Wall time [min]:   594.742
 
 MO:   135
 Number of atoms in domain:      36
 Number of atomic orbitals:    1773
 Number of atoms for local DF:   36
 Number of fitting functions:  4446 (100.00%)
 Warning: drop high-lying PAOs                     9
 Number of occupied orbitals:   104
 Number of virtual  orbitals:  1594
 Number of Cholesky vectors:      8
 MP2 energy in ED [au]:          -0.072267026074
 Number of occupied LNOs:        45  (43.27%)
 Number of virtual  LNOs:       154   (9.66%)
dropped smallnorm    95    96   5.57566766E-06
 tol*100>norm                   106  1.687431952295699E-005
 tol*100>norm                   107  1.956623478363794E-005
 tol*100>norm                   108  1.956665397730362E-005
dropped smallnorm   383   385   5.28857533E-06
 tol*100>norm                   395  1.559888009691870E-005
 tol*100>norm                   396  1.632213371135847E-005
 tol*100>norm                   397  1.633047949439788E-005
dropped smallnorm   441   444   5.28862834E-06
 tol*100>norm                   454  1.559815653488237E-005
 tol*100>norm                   455  1.632960349793029E-005
 tol*100>norm                   456  1.632240394198161E-005
dropped smallnorm   499   503   5.28865172E-06
 tol*100>norm                   513  1.559683305303200E-005
 tol*100>norm                   514  1.632202427635958E-005
 tol*100>norm                   515  1.632970048073666E-005
dropped smallnorm   557   562   5.28872743E-06
 tol*100>norm                   572  1.559746927913958E-005
 tol*100>norm                   573  1.633089487365064E-005
 tol*100>norm                   574  1.632294665081336E-005
 small norm                   105  1.687431952295603E-005
 small norm                   106  1.956623478363788E-005
 small norm                   107  1.956665397730365E-005
 small norm                   393  1.559888009691889E-005
 small norm                   394  1.632213371135845E-005
 small norm                   395  1.633047949439802E-005
 small norm                   451  1.559815653488258E-005
 small norm                   452  1.632960349793019E-005
 small norm                   453  1.632240394198164E-005
 small norm                   509  1.559683305303175E-005
 small norm                   510  1.632202427635980E-005
 small norm                   511  1.632970048073682E-005
 small norm                   567  1.559746927914200E-005
 small norm                   568  1.633089487365074E-005
 small norm                   569  1.632294665081358E-005
 Number of Cholesky vectors:      6
 MP2 energy in LIS [au]:         -0.071901563507
 Correction for frozen LNO [au]: -0.000365462567     (0.506%)
 Number of NAFs:                551  (12.39%)
 CPU time [min]: 19974.374                   Wall time [min]:   600.017
 

 Direct DF-CCSD(T) calculation
 
 Convergence criterion:  1.0E-05
 
 Number of occupied/virtual/auxiliary orbitals:    45   154   551
   1217.42 MB is the minimal memory requirement for (T)
    864.10 MB is the minimal memory requirement for CCSD
 
 MP2 correlation energy [au]:       -1.431410185059
 
 LMP2 domain correlation energy contribution [au]:       -0.071901866978
 
 CPU time [min]: 19974.973                   Wall time [min]:   600.073
 
 
 Starting CCSD iterations...
 
                     Residual norm       Correlation Energy
 Iteration  1        0.279243492574       -1.415899139845
 Iteration  2        0.076365876147       -1.448883536155
 Iteration  3        0.026060840439       -1.454777509570
 Iteration  4        0.005733699447       -1.454612445523
 Iteration  5        0.001712530638       -1.454641643510
 Iteration  6        0.000390881311       -1.454679536235
 Iteration  7        0.000132661207       -1.454674357441
 Iteration  8        0.000039572128       -1.454670484225
 
 CCSD iteration has converged in  8 steps.
     2963.19 MB memory was utilized by CCSD
 
 T1 diagnostic:      1.136E-02            D1 diagnostic:      3.956E-02
 
 T1 contribution [au]:                         0.000000000000
 CCSD correlation energy [au]:                -0.071429597926
 
 CPU time [min]: 20007.809                   Wall time [min]:   601.261
 
 Calculation of (T) correction...
 
 Laplace threshold, nquadmin:  1.00E-03   4
 Number of quadrature points:    4
 
     2649.79 MB memory is utilized for (T)

 0%       25%       50%       75%       100%
 |---------|---------|---------|---------| 
 
 (T) correction [au]:                   -0.002919996132
 CCSD(T) correlation energy [au]:       -0.074349594058
 
 CPU time [min]: 20055.788                   Wall time [min]:   602.520
 
 MO:   136
 Number of atoms in domain:      36
 Number of atomic orbitals:    1773
 Number of atoms for local DF:   36
 Number of fitting functions:  4446 (100.00%)
 Warning: drop high-lying PAOs                     9
 Number of occupied orbitals:    98
 Number of virtual  orbitals:  1594
 Number of Cholesky vectors:      8
 MP2 energy in ED [au]:          -0.070832012054
 Number of occupied LNOs:        46  (46.94%)
 Number of virtual  LNOs:       148   (9.28%)
dropped smallnorm    95    96   5.57855541E-06
 tol*100>norm                   106  1.687601916232475E-005
 tol*100>norm                   107  1.959158104440076E-005
 tol*100>norm                   108  1.959177039282831E-005
dropped smallnorm   442   444   5.28930687E-06
 tol*100>norm                   454  1.560126169350500E-005
 tol*100>norm                   455  1.633979589558747E-005
 tol*100>norm                   456  1.632631085179150E-005
 small norm                   105  1.687601916232411E-005
 small norm                   106  1.959158104440069E-005
 small norm                   107  1.959177039282837E-005
 small norm                   452  1.560126169350475E-005
 small norm                   453  1.633979589558720E-005
 small norm                   454  1.632631085179137E-005
 Number of Cholesky vectors:      6
 MP2 energy in LIS [au]:         -0.070531287447
 Correction for frozen LNO [au]: -0.000300724607     (0.425%)
 Number of NAFs:                539  (12.12%)
 CPU time [min]: 20216.830                   Wall time [min]:   607.635
 

 Direct DF-CCSD(T) calculation
 
 Convergence criterion:  1.0E-05
 
 Number of occupied/virtual/auxiliary orbitals:    46   148   539
   1146.22 MB is the minimal memory requirement for (T)
    826.78 MB is the minimal memory requirement for CCSD
 
 MP2 correlation energy [au]:       -1.343696218085
 
 LMP2 domain correlation energy contribution [au]:       -0.070531665578
 
 CPU time [min]: 20217.398                   Wall time [min]:   607.694
 
 
 Starting CCSD iterations...
 
                     Residual norm       Correlation Energy
 Iteration  1        0.259773688587       -1.336842314495
 Iteration  2        0.069711792236       -1.367080495609
 Iteration  3        0.024054577172       -1.372038946440
 Iteration  4        0.005029317292       -1.372000872146
 Iteration  5        0.001482122731       -1.372001867516
 Iteration  6        0.000350011831       -1.372017476336
 Iteration  7        0.000113842454       -1.372013522638
 Iteration  8        0.000031995227       -1.372012146901
 
 CCSD iteration has converged in  8 steps.
     2610.71 MB memory was utilized by CCSD
 
 T1 diagnostic:      1.115E-02            D1 diagnostic:      4.055E-02
 
 T1 contribution [au]:                         0.000000000000
 CCSD correlation energy [au]:                -0.070118130984
 
 CPU time [min]: 20248.094                   Wall time [min]:   608.841
 
 Calculation of (T) correction...
 
 Laplace threshold, nquadmin:  1.00E-03   4
 Number of quadrature points:    4
 
     2467.31 MB memory is utilized for (T)

 0%       25%       50%       75%       100%
 |---------|---------|---------|---------| 
 
 (T) correction [au]:                   -0.002789545420
 CCSD(T) correlation energy [au]:       -0.072907676404
 
 CPU time [min]: 20291.611                   Wall time [min]:   609.978
 
 **********************************************************************
 Dimensions of the extended domains:    Minimum / Average / Maximum
 
 Number of atoms in domain:                  35      35.8        36
 Number of atomic orbitals:                1727    1762.2      1773
 Number of fitting functions:              3494    4087.9      4446
 Number of occupied localized MOs:           28      53.5       104
 Number of PAOs:                           1344    1500.2      1594
 Number of occupied LNOs:                    19      31.6        58
 Number of virtual  LNOs:                    61     115.1       196
 Number of NAFs:                            234     418.7       766
 
 **********************************************************************
 Distant (and weak) pair contributions, corrections
 
 Sum of pair energies [au]:                    -0.002995960783    (0.033%)
 Sum of energy corrections [au]:               -0.028338771930    (0.308%)
 Pair energies + LNO corrections [au]:         -0.031334732713
 Sum of LMP2 contributions [au]:               -9.214269730510
 
 **********************************************************************
  Time of manipulations in the EDs:      max CPU/Wall [s]  all CPU/Wall [min]
 
 PD construction & multipole pair E    5843.21   146.84    97.39     2.45
 Construct MO basis of the ED            42.96     1.08    74.09     2.01
 (mu,nu|P) evaluation & trf 2 (ai|P)   3712.00   108.68  4605.75   121.26
 Evaluate MP2 energy of the ED          633.32    15.87   644.02    16.14
 Transformations to the LNO basis       281.90     7.06   306.75     7.69
 Build W_PQ (Jai or Jpi part)            11.33     0.28    12.89     0.32
 Evaluate MP2 energy of the LIS           7.93     0.20     5.15     0.13
 (mu,nu|P) evaluation & trf 2 J(abQ)   6349.39   230.30  8052.21   263.39
 Total of the above for all EDs       11038.82   363.48 13700.87   410.93
 
 **********************************************************************
 Maximum memory requirement [MB]:       
 
 PD construction & multipole pair E        230.2
 AO integral evaluation in the EDs        1324.7
 (mu,nu|P) evaluation & trf 2 (aI|P)     16742.6
 Evaluate MP2 energy in the EDs          13234.5
 Transformation to the LNO basis          2382.5
 (mu,nu|P) to Jab transformation          2895.7
 Evaluate MP2 energy in the LIS           2520.6
 Minimum requirement for LIS CCSD         1944.4
 Actually allocated  for LIS CCSD         7506.8
 Minimum requirement for LIS (T)          2733.9
 Actually allocated  for LIS (T)          6554.3
 
 ======================================================================
 ======================================================================
 
 
 
 ======================================================================
 ======================================================================
 
 Final local CC results:
 
 Minimum number of correlated electrons:        38       ( 14.0%)
 Maximum number of correlated electrons:       116       ( 42.6%)
 Average number of correlated electrons:        63.1     ( 23.2%)
 Minimum number of correlated orbitals:         80       (  4.6%)
 Maximum number of correlated orbitals:        253       ( 14.5%)
 Average number of correlated orbitals:        146.7     (  8.4%)
 
 CPU time for integral calculations [min]:                 29.971
 Wall time for integral calculations [min]:                 7.527
 
 CPU time for SCF calculation [min]:                      522.736
 Wall time for SCF calculation [min]:                      13.337
 
 CPU time for orbital localization [min]:                   0.562
 Wall time for orbital localization [min]:                  0.299
 
 CPU time for integral transformations [min]:           13943.899
 Wall time for integral transformations [min]:            417.931
 
 Reference energy [au]:                                -12966.771686873082
 
 LMP2 correlation energy [au]:                             -9.214269730510
 Total LMP2 energy [au]:                               -12975.985956603592
 
 Total MP2 correction for dropped NAFs [au]:               -0.000629795491
 Total MP2 correction [au]:                                -0.031964528204
 
 CPU time for CCSD calculations [min]:                   2549.169
 Total CPU time for CCSD [min]:                         17046.338
 Wall time for CCSD calculations [min]:                    92.868
 Total wall time for CCSD [min]:                          531.961
 
 CCSD correlation energy [au]:                             -9.156728151416
 Total CCSD energy [au]:                               -12975.928415024498
 CCSD correlation energy + 0.5 MP2 corrections [au]:       -9.172710415518
 Total LNO-CCSD energy with MP2 corrections [au]:      -12975.944397288600
 
 CPU time for (T) corrections [min]:                     3798.640
 Total CPU time for CCSD(T) [min]:                      20844.978
 Wall time for (T) corrections [min]:                      99.185
 Total wall time for CCSD(T) [min]:                       631.146
 
 Total (T) correlation energy contribution [au]:           -0.306310654669
 Total (T) correlation energy+0.5 MP2 correction [au]:     -0.322292918771
 CCSD(T) correlation energy [au]:                          -9.463038806085
 Total CCSD(T) energy [au]:                            -12976.234725679167
 CCSD(T) correlation energy + MP2 corrections [au]:        -9.495003334289
 Total LNO-CCSD(T) energy with MP2 corrections [au]:   -12976.266690207371
 
 ======================================================================
 ======================================================================
 
 ************************ 2022-11-14 22:43:05 *************************
                      Normal termination of mrcc.
 **********************************************************************
