 vasp.6.3.0 20Jan22 (build Apr  1 2022 16:44:48) complex                         
 executed on        HPECrayEX_GCC date 2023.05.17  21:47:31
 running  512 mpi-ranks, with    1 threads/rank
 distrk:  each k-point on  256 cores,    2 groups
 distr:  one band on NCORE=   4 cores,   64 groups


--------------------------------------------------------------------------------------------------------


 INCAR:
   SYSTEM = MgO-rocksalt
   ISMEAR = 0
   SIGMA = 0.05
   EDIFF = 1E-6
   ALGO = ALL
   ISTART = 0
   IBRION = -1
   NSW = 0
   ISYM = 2
   ISIF = 2
   EDIFFG = -0.01
   DIPOL = 0.5 0.5 0.5
   IDIPOL = 3
   LDIPOL = .TRUE.
   GGA = RE
   IVDW = 13
   VDW_S8 = 1.7468
   VDW_A1 = 0.5363
   VDW_A2 = 3.0726
   ENCUT = 600
   PREC = Normal
   LASPH = .TRUE.
   LREAL = .FALSE.
   ISPIN = 1
   NELM = 200
   NELMIN = 8
   NCORE = 4
   KPAR = 2
   LWAVE = .FALSE.
   LCHARG = .FALSE.

 POTCAR:    PAW_PBE C 08Apr2002                   
 POTCAR:    PAW_PBE O 08Apr2002                   
 POTCAR:    PAW_PBE Mg_pv 13Apr2007               
 POTCAR:    PAW_PBE O 08Apr2002                   
 POTCAR:    PAW_PBE C 08Apr2002                   
   SHA256 =  253f7b50bb8d59471dbedb8285d89021f4a42ed1a2c5d38a03a736e69125dd95 C/POTCAR              
   COPYR  = (c) Copyright 08Apr2002 Georg Kresse                                                    
   COPYR  = This file is part of the software VASP. Any use, copying, and all other rights are regul
   COPYR  = If you do not have a valid VASP license, you may not use, copy or distribute this file. 
   VRHFIN =C: s2p2                                                                                  
   LEXCH  = PE                                                                                      
   EATOM  =   147.1560 eV,   10.8157 Ry                                                             
                                                                                                    
   TITEL  = PAW_PBE C 08Apr2002                                                                     
   LULTRA =        F    use ultrasoft PP ?                                                          
   IUNSCR =        1    unscreen: 0-lin 1-nonlin 2-no                                               
   RPACOR =    1.200    partial core radius                                                         
   POMASS =   12.011; ZVAL   =    4.000    mass and valenz                                          
   RCORE  =    1.500    outmost cutoff radius                                                       
   RWIGS  =    1.630; RWIGS  =    0.863    wigner-seitz radius (au A)                               
   ENMAX  =  400.000; ENMIN  =  300.000 eV                                                          
   ICORE  =        2    local potential                                                             
   LCOR   =        T    correct aug charges                                                         
   LPAW   =        T    paw PP                                                                      
   EAUG   =  644.873                                                                                
   DEXC   =    0.000                                                                                
   RMAX   =    1.529    core radius for proj-oper                                                   
   RAUG   =    1.300    factor for augmentation sphere                                              
   RDEP   =    1.501    radius for radial grids                                                     
   RDEPT  =    1.300    core radius for aug-charge                                                  
                                                                                                    
   Atomic configuration                                                                             
    4 entries                                                                                       
     n  l   j            E        occ.                                                              
     1  0  0.50      -273.3789   2.0000                                                             
     2  0  0.50       -13.7508   2.0000                                                             
     2  1  0.50        -5.2854   2.0000                                                             
     3  2  1.50        -5.4423   0.0000                                                             
   Description                                                                                      
     l       E           TYP  RCUT    TYP  RCUT                                                     
     0    -13.7508458     23  1.200                                                                 
     0     -8.2022199     23  1.200                                                                 
     1     -5.2854383     23  1.500                                                                 
     1     34.0145650     23  1.500                                                                 
     2     -5.4423304      7  1.500                                                                 
  local pseudopotential read in
  partial core-charges read in
  partial kinetic energy density read in
  atomic valenz-charges read in
  non local Contribution for L=           0  read in
    real space projection operators read in
  non local Contribution for L=           0  read in
    real space projection operators read in
  non local Contribution for L=           1  read in
    real space projection operators read in
  non local Contribution for L=           1  read in
    real space projection operators read in
    PAW grid and wavefunctions read in

   number of l-projection  operators is LMAX  =           4
   number of lm-projection operators is LMMAX =           8

 POTCAR:    PAW_PBE O 08Apr2002                   
   SHA256 =  818f92134a0a090dccd8ba1447fa70422a3b330e708bb4f08108d8ae51209ddf O/POTCAR              
   COPYR  = (c) Copyright 08Apr2002 Georg Kresse                                                    
   COPYR  = This file is part of the software VASP. Any use, copying, and all other rights are regul
   COPYR  = If you do not have a valid VASP license, you may not use, copy or distribute this file. 
   VRHFIN =O: s2p4                                                                                  
   LEXCH  = PE                                                                                      
   EATOM  =   432.3788 eV,   31.7789 Ry                                                             
                                                                                                    
   TITEL  = PAW_PBE O 08Apr2002                                                                     
   LULTRA =        F    use ultrasoft PP ?                                                          
   IUNSCR =        1    unscreen: 0-lin 1-nonlin 2-no                                               
   RPACOR =    1.200    partial core radius                                                         
   POMASS =   16.000; ZVAL   =    6.000    mass and valenz                                          
   RCORE  =    1.520    outmost cutoff radius                                                       
   RWIGS  =    1.550; RWIGS  =    0.820    wigner-seitz radius (au A)                               
   ENMAX  =  400.000; ENMIN  =  300.000 eV                                                          
   ICORE  =        2    local potential                                                             
   LCOR   =        T    correct aug charges                                                         
   LPAW   =        T    paw PP                                                                      
   EAUG   =  605.392                                                                                
   DEXC   =    0.000                                                                                
   RMAX   =    1.553    core radius for proj-oper                                                   
   RAUG   =    1.300    factor for augmentation sphere                                              
   RDEP   =    1.550    radius for radial grids                                                     
   RDEPT  =    1.329    core radius for aug-charge                                                  
                                                                                                    
   Atomic configuration                                                                             
    4 entries                                                                                       
     n  l   j            E        occ.                                                              
     1  0  0.50      -514.6923   2.0000                                                             
     2  0  0.50       -23.9615   2.0000                                                             
     2  1  0.50        -9.0305   4.0000                                                             
     3  2  1.50        -9.5241   0.0000                                                             
   Description                                                                                      
     l       E           TYP  RCUT    TYP  RCUT                                                     
     0    -23.9615318     23  1.200                                                                 
     0     -9.5240782     23  1.200                                                                 
     1     -9.0304911     23  1.520                                                                 
     1      8.1634956     23  1.520                                                                 
     2     -9.5240782      7  1.500                                                                 
  local pseudopotential read in
  partial core-charges read in
  partial kinetic energy density read in
  kinetic energy density of atom read in
  atomic valenz-charges read in
  non local Contribution for L=           0  read in
    real space projection operators read in
  non local Contribution for L=           0  read in
    real space projection operators read in
  non local Contribution for L=           1  read in
    real space projection operators read in
  non local Contribution for L=           1  read in
    real space projection operators read in
    PAW grid and wavefunctions read in

   number of l-projection  operators is LMAX  =           4
   number of lm-projection operators is LMMAX =           8

 POTCAR:    PAW_PBE Mg_pv 13Apr2007               
   SHA256 =  f474ac0dd33840b9ae76c01d57fea79fdf77cdfbb07d5ade72c65f83c709b62b Mg_pv/POTCAR          
   COPYR  = (c) Copyright 13Apr2007 Georg Kresse                                                    
   COPYR  = This file is part of the software VASP. Any use, copying, and all other rights are regul
   COPYR  = If you do not have a valid VASP license, you may not use, copy or distribute this file. 
   VRHFIN =Mg: p6s2                                                                                 
   LEXCH  = PE                                                                                      
   EATOM  =  1056.7344 eV,   77.6678 Ry                                                             
                                                                                                    
   TITEL  = PAW_PBE Mg_pv 13Apr2007                                                                 
   LULTRA =        F    use ultrasoft PP ?                                                          
   IUNSCR =        1    unscreen: 0-lin 1-nonlin 2-no                                               
   RPACOR =    1.500    partial core radius                                                         
   POMASS =   24.305; ZVAL   =    8.000    mass and valenz                                          
   RCORE  =    2.000    outmost cutoff radius                                                       
   RWIGS  =    2.000; RWIGS  =    1.058    wigner-seitz radius (au A)                               
   ENMAX  =  403.929; ENMIN  =  302.947 eV                                                          
   RCLOC  =    1.506    cutoff for local pot                                                        
   LCOR   =        T    correct aug charges                                                         
   LPAW   =        T    paw PP                                                                      
   EAUG   =  758.780                                                                                
   DEXC   =    0.000                                                                                
   RMAX   =    2.045    core radius for proj-oper                                                   
   RAUG   =    1.300    factor for augmentation sphere                                              
   RDEP   =    2.025    radius for radial grids                                                     
   RDEPT  =    1.557    core radius for aug-charge                                                  
                                                                                                    
   Atomic configuration                                                                             
    5 entries                                                                                       
     n  l   j            E        occ.                                                              
     1  0  0.50     -1259.6230   2.0000                                                             
     2  0  0.50       -79.8442   2.0000                                                             
     2  1  1.50       -46.6121   6.0000                                                             
     3  0  0.50        -4.7055   2.0000                                                             
     3  2  1.50        -1.3606   0.0000                                                             
   Description                                                                                      
     l       E           TYP  RCUT    TYP  RCUT                                                     
     1    -46.6121073     23  1.600                                                                 
     1      2.7211652     23  1.600                                                                 
     0     -4.7054661     23  2.000                                                                 
     0     61.2262170     23  2.000                                                                 
     2     -1.3605826     23  2.000                                                                 
  local pseudopotential read in
  partial core-charges read in
  partial kinetic energy density read in
  atomic valenz-charges read in
  non local Contribution for L=           1  read in
    real space projection operators read in
  non local Contribution for L=           1  read in
    real space projection operators read in
  non local Contribution for L=           0  read in
    real space projection operators read in
  non local Contribution for L=           0  read in
    real space projection operators read in
  non local Contribution for L=           2  read in
    real space projection operators read in
    PAW grid and wavefunctions read in

   number of l-projection  operators is LMAX  =           5
   number of lm-projection operators is LMMAX =          13

 POTCAR:    PAW_PBE O 08Apr2002                   
   SHA256 =  818f92134a0a090dccd8ba1447fa70422a3b330e708bb4f08108d8ae51209ddf O/POTCAR              
   COPYR  = (c) Copyright 08Apr2002 Georg Kresse                                                    
   COPYR  = This file is part of the software VASP. Any use, copying, and all other rights are regul
   COPYR  = If you do not have a valid VASP license, you may not use, copy or distribute this file. 
   VRHFIN =O: s2p4                                                                                  
   LEXCH  = PE                                                                                      
   EATOM  =   432.3788 eV,   31.7789 Ry                                                             
                                                                                                    
   TITEL  = PAW_PBE O 08Apr2002                                                                     
   LULTRA =        F    use ultrasoft PP ?                                                          
   IUNSCR =        1    unscreen: 0-lin 1-nonlin 2-no                                               
   RPACOR =    1.200    partial core radius                                                         
   POMASS =   16.000; ZVAL   =    6.000    mass and valenz                                          
   RCORE  =    1.520    outmost cutoff radius                                                       
   RWIGS  =    1.550; RWIGS  =    0.820    wigner-seitz radius (au A)                               
   ENMAX  =  400.000; ENMIN  =  300.000 eV                                                          
   ICORE  =        2    local potential                                                             
   LCOR   =        T    correct aug charges                                                         
   LPAW   =        T    paw PP                                                                      
   EAUG   =  605.392                                                                                
   DEXC   =    0.000                                                                                
   RMAX   =    1.553    core radius for proj-oper                                                   
   RAUG   =    1.300    factor for augmentation sphere                                              
   RDEP   =    1.550    radius for radial grids                                                     
   RDEPT  =    1.329    core radius for aug-charge                                                  
                                                                                                    
   Atomic configuration                                                                             
    4 entries                                                                                       
     n  l   j            E        occ.                                                              
     1  0  0.50      -514.6923   2.0000                                                             
     2  0  0.50       -23.9615   2.0000                                                             
     2  1  0.50        -9.0305   4.0000                                                             
     3  2  1.50        -9.5241   0.0000                                                             
   Description                                                                                      
     l       E           TYP  RCUT    TYP  RCUT                                                     
     0    -23.9615318     23  1.200                                                                 
     0     -9.5240782     23  1.200                                                                 
     1     -9.0304911     23  1.520                                                                 
     1      8.1634956     23  1.520                                                                 
     2     -9.5240782      7  1.500                                                                 
  local pseudopotential read in
  partial core-charges read in
  partial kinetic energy density read in
  kinetic energy density of atom read in
  atomic valenz-charges read in
  non local Contribution for L=           0  read in
    real space projection operators read in
  non local Contribution for L=           0  read in
    real space projection operators read in
  non local Contribution for L=           1  read in
    real space projection operators read in
  non local Contribution for L=           1  read in
    real space projection operators read in
    PAW grid and wavefunctions read in

   number of l-projection  operators is LMAX  =           4
   number of lm-projection operators is LMMAX =           8

 -----------------------------------------------------------------------------
|                                                                             |
|               ----> ADVICE to this user running VASP <----                  |
|                                                                             |
|     You have a (more or less) 'large supercell' and for larger cells it     |
|     might be more efficient to use real-space projection operators.         |
|     Therefore, try LREAL= Auto in the INCAR file.                           |
|     Mind: For very accurate calculation, you might also keep the            |
|     reciprocal projection scheme (i.e. LREAL=.FALSE.).                      |
|                                                                             |
 -----------------------------------------------------------------------------

 -----------------------------------------------------------------------------
|                                                                             |
|               ----> ADVICE to this user running VASP <----                  |
|                                                                             |
|     You enforced a specific xc type in the INCAR file but a different       |
|     type was found in the POTCAR file.                                      |
|     I HOPE YOU KNOW WHAT YOU ARE DOING!                                     |
|                                                                             |
 -----------------------------------------------------------------------------

  PAW_PBE C 08Apr2002                   :
 energy of atom  1       EATOM= -147.1560
 kinetic energy error for atom=    0.0057 (will be added to EATOM!!)
  PAW_PBE O 08Apr2002                   :
 energy of atom  2       EATOM= -432.3788
 kinetic energy error for atom=    0.0168 (will be added to EATOM!!)
  PAW_PBE Mg_pv 13Apr2007               :
 energy of atom  3       EATOM=-1056.7344
 kinetic energy error for atom=    0.0221 (will be added to EATOM!!)
  PAW_PBE O 08Apr2002                   :
 energy of atom  4       EATOM= -432.3788
 kinetic energy error for atom=    0.0168 (will be added to EATOM!!)


 POSCAR:  C  O Mg  O
  positions in direct lattice
  No initial velocities read in
 -----------------------------------------------------------------------------
|                                                                             |
|           W    W    AA    RRRRR   N    N  II  N    N   GGGG   !!!           |
|           W    W   A  A   R    R  NN   N  II  NN   N  G    G  !!!           |
|           W    W  A    A  R    R  N N  N  II  N N  N  G       !!!           |
|           W WW W  AAAAAA  RRRRR   N  N N  II  N  N N  G  GGG   !            |
|           WW  WW  A    A  R   R   N   NN  II  N   NN  G    G                |
|           W    W  A    A  R    R  N    N  II  N    N   GGGG   !!!           |
|                                                                             |
|     Specifying the vdW parameters                                           |
|     VDW_S8 = 1.747                                                          |
|     VDW_A1 = 0.536                                                          |
|     VDW_A2 = 3.073                                                          |
|     in the INCAR file will overwrite the defaults for revpbe. Please        |
|     make sure that is what you intended.                                    |
|                                                                             |
 -----------------------------------------------------------------------------

 exchange correlation table for  LEXCH =       40
   RHO(1)=    0.500       N(1)  =     2000
   RHO(2)=  100.500       N(2)  =     4000



--------------------------------------------------------------------------------------------------------


 ion  position               nearest neighbor table
   1  0.500  0.500  0.766-   2 1.15
   2  0.500  0.500  0.820-   1 1.15
   3  0.000  0.750  0.352-  35 2.11  37 2.11  38 2.11  45 2.11  54 2.11
   4  0.250  0.000  0.352-  36 2.11  37 2.11  38 2.11  46 2.11  53 2.11
   5  0.000  0.000  0.451-  37 2.11  36 2.11  35 2.11  43 2.11  52 2.11  41 2.12
   6  0.250  0.750  0.451-  38 2.11  36 2.11  35 2.11  44 2.11  51 2.11  42 2.12
   7  0.000  0.750  0.550-  49 2.11  42 2.11  58 2.11  41 2.11  35 2.12  39 2.15
   8  0.250  0.000  0.550-  57 2.11  50 2.11  42 2.11  41 2.11  36 2.12  40 2.15
   9  0.000  0.000  0.649-  39 2.11  40 2.11  47 2.11  56 2.11  41 2.11
  10  0.250  0.750  0.649-  42 2.11  40 2.11  39 2.11  48 2.11  55 2.11
  11  0.000  0.250  0.352-  43 2.11  37 2.11  45 2.11  46 2.11  62 2.11
  12  0.250  0.500  0.352-  44 2.11  38 2.11  45 2.11  46 2.11  61 2.11
  13  0.000  0.500  0.451-  45 2.11  43 2.11  44 2.11  35 2.11  60 2.11  49 2.12
  14  0.250  0.250  0.451-  46 2.11  43 2.11  44 2.11  36 2.11  59 2.11  50 2.12
  15  0.000  0.250  0.550-  49 2.11  50 2.11  66 2.11  41 2.11  43 2.12  47 2.15
  16  0.250  0.500  0.550-  65 2.11  50 2.11  42 2.11  49 2.11  44 2.13  48 2.15
  17  0.000  0.500  0.649-  48 2.10  64 2.10  49 2.11  47 2.11  39 2.11
  18  0.250  0.250  0.649-  50 2.11  47 2.11  40 2.11  48 2.11  63 2.11
  19  0.500  0.750  0.352-  51 2.11  38 2.11  53 2.11  54 2.11  61 2.11
  20  0.750  0.000  0.352-  52 2.11  37 2.11  53 2.11  54 2.11  62 2.11
  21  0.500  0.000  0.451-  53 2.11  51 2.11  52 2.11  36 2.11  59 2.11  57 2.12
  22  0.750  0.750  0.451-  54 2.11  51 2.11  52 2.11  35 2.11  60 2.11  58 2.12
  23  0.500  0.750  0.550-  65 2.11  58 2.11  42 2.11  57 2.11  51 2.13  55 2.15
  24  0.750  0.000  0.550-  57 2.11  58 2.11  66 2.11  41 2.11  52 2.12  56 2.15
  25  0.500  0.000  0.649-  55 2.10  63 2.10  57 2.11  40 2.11  56 2.11
  26  0.750  0.750  0.649-  58 2.11  56 2.11  39 2.11  55 2.11  64 2.11
  27  0.500  0.250  0.352-  59 2.11  53 2.11  46 2.11  61 2.11  62 2.11
  28  0.750  0.500  0.352-  60 2.11  54 2.11  45 2.11  61 2.11  62 2.11
  29  0.500  0.500  0.451-  61 2.11  51 2.11  59 2.11  60 2.11  44 2.11  65 2.13
  30  0.750  0.250  0.451-  62 2.11  52 2.11  59 2.11  60 2.11  43 2.11  66 2.12
  31  0.500  0.250  0.550-  65 2.11  50 2.11  66 2.11  57 2.11  59 2.13  63 2.15
  32  0.750  0.500  0.550-  65 2.11  58 2.11  66 2.11  49 2.11  60 2.13  64 2.15
  33  0.500  0.500  0.651-  48 2.12  55 2.12  63 2.12  64 2.12  65 2.14
  34  0.750  0.250  0.649-  66 2.11  56 2.11  47 2.11  64 2.11  63 2.11
  35  0.000  0.750  0.451-   3 2.11   5 2.11   6 2.11  13 2.11  22 2.11   7 2.12
  36  0.250  0.000  0.451-   4 2.11   5 2.11   6 2.11  14 2.11  21 2.11   8 2.12
  37  0.000  0.000  0.352-   5 2.11   4 2.11   3 2.11  11 2.11  20 2.11
  38  0.250  0.750  0.352-   6 2.11   4 2.11   3 2.11  12 2.11  19 2.11
  39  0.000  0.750  0.651-   9 2.11  10 2.11  26 2.11  17 2.11   7 2.15
  40  0.250  0.000  0.651-   9 2.11  10 2.11  18 2.11  25 2.11   8 2.15
  41  0.000  0.000  0.550-   9 2.11   8 2.11   7 2.11  15 2.11  24 2.11   5 2.12
  42  0.250  0.750  0.550-  10 2.11   8 2.11   7 2.11  16 2.11  23 2.11   6 2.12
  43  0.000  0.250  0.451-  11 2.11   5 2.11  13 2.11  14 2.11  30 2.11  15 2.12
  44  0.250  0.500  0.451-  12 2.11   6 2.11  13 2.11  14 2.11  29 2.11  16 2.13
  45  0.000  0.500  0.352-  13 2.11  11 2.11  12 2.11   3 2.11  28 2.11
  46  0.250  0.250  0.352-  14 2.11  11 2.11  12 2.11   4 2.11  27 2.11
  47  0.000  0.250  0.651-   9 2.11  18 2.11  34 2.11  17 2.11  15 2.15
  48  0.249  0.500  0.651-  17 2.10  10 2.11  18 2.11  33 2.12  16 2.15
  49  0.000  0.500  0.550-  17 2.11  15 2.11   7 2.11  16 2.11  32 2.11  13 2.12
  50  0.250  0.250  0.550-  18 2.11  15 2.11   8 2.11  16 2.11  31 2.11  14 2.12
  51  0.500  0.750  0.451-  19 2.11   6 2.11  21 2.11  22 2.11  29 2.11  23 2.13
  52  0.750  0.000  0.451-  20 2.11   5 2.11  21 2.11  22 2.11  30 2.11  24 2.12
  53  0.500  0.000  0.352-  21 2.11  19 2.11  20 2.11   4 2.11  27 2.11
  54  0.750  0.750  0.352-  22 2.11  19 2.11  20 2.11   3 2.11  28 2.11
  55  0.500  0.751  0.651-  25 2.10  10 2.11  26 2.11  33 2.12  23 2.15
  56  0.750  0.000  0.651-   9 2.11  26 2.11  34 2.11  25 2.11  24 2.15
  57  0.500  0.000  0.550-  25 2.11  24 2.11   8 2.11  23 2.11  31 2.11  21 2.12
  58  0.750  0.750  0.550-  26 2.11  24 2.11   7 2.11  32 2.11  23 2.11  22 2.12
  59  0.500  0.250  0.451-  27 2.11  21 2.11  14 2.11  29 2.11  30 2.11  31 2.13
  60  0.750  0.500  0.451-  28 2.11  22 2.11  13 2.11  29 2.11  30 2.11  32 2.13
  61  0.500  0.500  0.352-  29 2.11  19 2.11  27 2.11  28 2.11  12 2.11
  62  0.750  0.250  0.352-  30 2.11  20 2.11  27 2.11  28 2.11  11 2.11
  63  0.500  0.249  0.651-  25 2.10  18 2.11  34 2.11  33 2.12  31 2.15
  64  0.751  0.500  0.651-  17 2.10  26 2.11  34 2.11  33 2.12  32 2.15
  65  0.500  0.500  0.550-  16 2.11  23 2.11  31 2.11  32 2.11  29 2.13  33 2.14
  66  0.750  0.250  0.550-  34 2.11  24 2.11  15 2.11  32 2.11  31 2.11  30 2.12

  LATTYP: Found a simple tetragonal cell.
 ALAT       =     8.4409846542
 C/A-ratio  =     2.5270438657
  
  Lattice vectors:
  
 A1 = (   8.4409846542,   0.0000000000,   0.0000000000)
 A2 = (   0.0000000000,   8.4409846542,   0.0000000000)
 A3 = (   0.0000000000,   0.0000000000,  21.3307384906)


Analysis of symmetry for initial positions (statically):
=====================================================================
 Subroutine PRICEL returns:
 Original cell was already a primitive cell.
 

 Routine SETGRP: Setting up the symmetry group for a 
 simple tetragonal supercell.


 Subroutine GETGRP returns: Found  8 space group operations
 (whereof  8 operations were pure point group operations)
 out of a pool of 16 trial point group operations.


The static configuration has the point symmetry C_4v.


Analysis of symmetry for dynamics (positions and initial velocities):
=====================================================================
 Subroutine PRICEL returns:
 Original cell was already a primitive cell.
 

 Routine SETGRP: Setting up the symmetry group for a 
 simple tetragonal supercell.


 Subroutine GETGRP returns: Found  8 space group operations
 (whereof  8 operations were pure point group operations)
 out of a pool of 16 trial point group operations.


The dynamic configuration has the point symmetry C_4v.


 Subroutine INISYM returns: Found  8 space group operations
 (whereof  8 operations are pure point group operations),
 and found     1 'primitive' translations


----------------------------------------------------------------------------------------

                                     Primitive cell                                     

  volume of cell :    1519.8199

  direct lattice vectors                    reciprocal lattice vectors
     8.440984654  0.000000000  0.000000000     0.118469591  0.000000000  0.000000000
     0.000000000  8.440984654  0.000000000     0.000000000  0.118469591  0.000000000
     0.000000000  0.000000000 21.330738491     0.000000000  0.000000000  0.046880702

  length of vectors
     8.440984654  8.440984654 21.330738491     0.118469591  0.118469591  0.046880702

  position of ions in fractional coordinates (direct lattice)
     0.500000000  0.500000000  0.766412295
     0.500000000  0.500000000  0.820176013
     0.000000000  0.750000000  0.351605267
     0.250000000  0.000000000  0.351605267
     0.000000000  0.000000000  0.450535089
     0.250000000  0.750000000  0.450535089
     0.000000000  0.749939268  0.550083239
     0.250060732  0.000000000  0.550083239
     0.000000000  0.000000000  0.648745309
     0.249858327  0.750141673  0.648569547
     0.000000000  0.250000000  0.351605267
     0.250000000  0.500000000  0.351605267
     0.000000000  0.500000000  0.450535089
     0.250000000  0.250000000  0.450535089
     0.000000000  0.250060732  0.550083239
     0.250378379  0.500000000  0.550219524
     0.000000000  0.500000000  0.648615280
     0.249858327  0.249858327  0.648569547
     0.500000000  0.750000000  0.351605267
     0.750000000  0.000000000  0.351605267
     0.500000000  0.000000000  0.450535089
     0.750000000  0.750000000  0.450535089
     0.500000000  0.749621621  0.550219524
     0.749939268  0.000000000  0.550083239
     0.500000000  0.000000000  0.648615280
     0.750141673  0.750141673  0.648569547
     0.500000000  0.250000000  0.351605267
     0.750000000  0.500000000  0.351605267
     0.500000000  0.500000000  0.450535089
     0.750000000  0.250000000  0.450535089
     0.500000000  0.250378379  0.550219524
     0.749621621  0.500000000  0.550219524
     0.500000000  0.500000000  0.650616960
     0.750141673  0.249858327  0.648569547
     0.000000000  0.750000000  0.450535089
     0.250000000  0.000000000  0.450535089
     0.000000000  0.000000000  0.351605267
     0.250000000  0.750000000  0.351605267
     0.000000000  0.750218533  0.650979255
     0.249781467  0.000000000  0.650979255
     0.000000000  0.000000000  0.549809890
     0.249945770  0.750054230  0.549859113
     0.000000000  0.250000000  0.450535089
     0.250000000  0.500000000  0.450535089
     0.000000000  0.500000000  0.351605267
     0.250000000  0.250000000  0.351605267
     0.000000000  0.249781467  0.650979255
     0.248822710  0.500000000  0.650882872
     0.000000000  0.500000000  0.549762666
     0.249945770  0.249945770  0.549859113
     0.500000000  0.750000000  0.450535089
     0.750000000  0.000000000  0.450535089
     0.500000000  0.000000000  0.351605267
     0.750000000  0.750000000  0.351605267
     0.500000000  0.751177290  0.650882872
     0.750218533  0.000000000  0.650979255
     0.500000000  0.000000000  0.549762666
     0.750054230  0.750054230  0.549859113
     0.500000000  0.250000000  0.450535089
     0.750000000  0.500000000  0.450535089
     0.500000000  0.500000000  0.351605267
     0.750000000  0.250000000  0.351605267
     0.500000000  0.248822710  0.650882872
     0.751177290  0.500000000  0.650882872
     0.500000000  0.500000000  0.550231357
     0.750054230  0.249945770  0.549859113

  ion indices of the primitive-cell ions
   primitive index   ion index
                 1           1
                 2           2
                 3           3
                 4           4
                 5           5
                 6           6
                 7           7
                 8           8
                 9           9
                10          10
                11          11
                12          12
                13          13
                14          14
                15          15
                16          16
                17          17
                18          18
                19          19
                20          20
                21          21
                22          22
                23          23
                24          24
                25          25
                26          26
                27          27
                28          28
                29          29
                30          30
                31          31
                32          32
                33          33
                34          34
                35          35
                36          36
                37          37
                38          38
                39          39
                40          40
                41          41
                42          42
                43          43
                44          44
                45          45
                46          46
                47          47
                48          48
                49          49
                50          50
                51          51
                52          52
                53          53
                54          54
                55          55
                56          56
                57          57
                58          58
                59          59
                60          60
                61          61
                62          62
                63          63
                64          64
                65          65
                66          66

----------------------------------------------------------------------------------------



 KPOINTS: pymatgen v2020.8.13 with grid density = 

Automatic generation of k-mesh.
 Grid dimensions read from file:
 generate k-points for:    2    2    1

 Generating k-lattice:

  Cartesian coordinates                     Fractional coordinates (reciprocal lattice)
     0.059234796  0.000000000  0.000000000     0.500000000  0.000000000  0.000000000
     0.000000000  0.059234796  0.000000000     0.000000000  0.500000000  0.000000000
     0.000000000  0.000000000  0.046880702     0.000000000  0.000000000  1.000000000

  Length of vectors
     0.059234796  0.059234796  0.046880702

  Shift w.r.t. Gamma in fractional coordinates (k-lattice)
     0.000000000  0.000000000  0.000000000

 
 Subroutine IBZKPT returns following result:
 ===========================================
 
 Found      3 irreducible k-points:
 
 Following reciprocal coordinates:
            Coordinates               Weight
  0.000000  0.000000  0.000000      1.000000
  0.500000  0.000000  0.000000      2.000000
  0.500000  0.500000  0.000000      1.000000
 
 Following cartesian coordinates:
            Coordinates               Weight
  0.000000  0.000000  0.000000      1.000000
  0.059235  0.000000  0.000000      2.000000
  0.059235  0.059235  0.000000      1.000000
 


--------------------------------------------------------------------------------------------------------




 Dimension of arrays:
   k-points           NKPTS =      3   k-points in BZ     NKDIM =      3   number of bands    NBANDS=    320
   number of dos      NEDOS =    301   number of ions     NIONS =     66
   non local maximal  LDIM  =      5   non local SUM 2l+1 LMDIM =     13
   total plane-waves  NPLWV = 373248
   max r-space proj   IRMAX =      1   max aug-charges    IRDMAX=   5039
   dimension x,y,z NGX =    54 NGY =   54 NGZ =  128
   dimension x,y,z NGXF=   108 NGYF=  108 NGZF=  256
   support grid    NGXF=   108 NGYF=  108 NGZF=  256
   ions per type =               1   1  32  32
   NGX,Y,Z   is equivalent  to a cutoff of  10.64, 10.64,  9.98 a.u.
   NGXF,Y,Z  is equivalent  to a cutoff of  21.27, 21.27, 19.95 a.u.

 SYSTEM =  MgO-rocksalt                            
 POSCAR =   C  O Mg  O                             

 Startparameter for this run:
   NWRITE =      2    write-flag & timer
   PREC   = normal    normal or accurate (medium, high low for compatibility)
   ISTART =      0    job   : 0-new  1-cont  2-samecut
   ICHARG =      2    charge: 1-file 2-atom 10-const
   ISPIN  =      1    spin polarized calculation?
   LNONCOLLINEAR =      F non collinear calculations
   LSORBIT =      F    spin-orbit coupling
   INIWAV =      1    electr: 0-lowe 1-rand  2-diag
   LASPH  =      T    aspherical Exc in radial PAW
 Electronic Relaxation 1
   ENCUT  =  600.0 eV  44.10 Ry    6.64 a.u.  16.86 16.86 42.60*2*pi/ulx,y,z
   ENINI  =  600.0     initial cutoff
   ENAUG  =  758.8 eV  augmentation charge cutoff
   NELM   =    200;   NELMIN=  8; NELMDL= -5     # of ELM steps 
   EDIFF  = 0.1E-05   stopping-criterion for ELM
   LREAL  =      F    real-space projection
   NLSPLINE    = F    spline interpolate recip. space projectors
   LCOMPAT=      F    compatible to vasp.4.4
   GGA_COMPAT  = T    GGA compatible to vasp.4.4-vasp.4.6
   LMAXPAW     = -100 max onsite density
   LMAXMIX     =    2 max onsite mixed and CHGCAR
   VOSKOWN=      0    Vosko Wilk Nusair interpolation
   ROPT   =    0.00000   0.00000   0.00000   0.00000
 Ionic relaxation
   EDIFFG = -.1E-01   stopping-criterion for IOM
   NSW    =      0    number of steps for IOM
   NBLOCK =      1;   KBLOCK =      1    inner block; outer block 
   IBRION =     -1    ionic relax: 0-MD 1-quasi-New 2-CG
   NFREE  =      0    steps in history (QN), initial steepest desc. (CG)
   ISIF   =      2    stress and relaxation
   IWAVPR =     10    prediction:  0-non 1-charg 2-wave 3-comb
   ISYM   =      2    0-nonsym 1-usesym 2-fastsym
   LCORR  =      T    Harris-Foulkes like correction to forces

   POTIM  = 0.5000    time-step for ionic-motion
   TEIN   =    0.0    initial temperature
   TEBEG  =    0.0;   TEEND  =   0.0 temperature during run
   SMASS  =  -3.00    Nose mass-parameter (am)
   estimated Nose-frequenzy (Omega)   =  0.10E-29 period in steps = 0.13E+47 mass=  -0.163E-26a.u.
   SCALEE = 1.0000    scale energy and forces
   NPACO  =    256;   APACO  = 10.0  distance and # of slots for P.C.
   PSTRESS=    0.0 pullay stress

  Mass of Ions in am
   POMASS =  12.01 16.00 24.30 16.00
  Ionic Valenz
   ZVAL   =   4.00  6.00  8.00  6.00
  Atomic Wigner-Seitz radii
   RWIGS  =  -1.00 -1.00 -1.00 -1.00
  virtual crystal weights 
   VCA    =   1.00  1.00  1.00  1.00
   NELECT =     458.0000    total number of electrons
   NUPDOWN=      -1.0000    fix difference up-down

 DOS related values:
   EMIN   =  10.00;   EMAX   =-10.00  energy-range for DOS
   EFERMI =   0.00
   ISMEAR =     0;   SIGMA  =   0.05  broadening in eV -4-tet -1-fermi 0-gaus

 Electronic relaxation 2 (details)
   IALGO  =     58    algorithm
   LDIAG  =      T    sub-space diagonalisation (order eigenvalues)
   LSUBROT=      F    optimize rotation matrix (better conditioning)
   TURBO    =      0    0=normal 1=particle mesh
   IRESTART =      0    0=no restart 2=restart with 2 vectors
   NREBOOT  =      0    no. of reboots
   NMIN     =      0    reboot dimension
   EREF     =   0.00    reference energy to select bands
   IMIX   =      4    mixing-type and parameters
     AMIX     =   0.40;   BMIX     =  1.00
     AMIX_MAG =   1.60;   BMIX_MAG =  1.00
     AMIN     =   0.10
     WC   =   100.;   INIMIX=   1;  MIXPRE=   1;  MAXMIX= -45

 Intra band minimization:
   WEIMIN = 0.0000     energy-eigenvalue tresh-hold
   EBREAK =  0.78E-09  absolut break condition
   DEPER  =   0.30     relativ break condition  

   TIME   =   0.40     timestep for ELM

  volume/ion in A,a.u.               =      23.03       155.40
  Fermi-wavevector in a.u.,A,eV,Ry     =   1.097571  2.074108 16.390423  1.204662
  Thomas-Fermi vector in A             =   2.233933

 Write flags
   LWAVE        =      F    write WAVECAR
   LDOWNSAMPLE  =      F    k-point downsampling of WAVECAR
   LCHARG       =      F    write CHGCAR
   LVTOT        =      F    write LOCPOT, total local potential
   LVHAR        =      F    write LOCPOT, Hartree potential only
   LELF         =      F    write electronic localiz. function (ELF)
   LORBIT       =      0    0 simple, 1 ext, 2 COOP (PROOUT), +10 PAW based schemes


 Dipole corrections
   LMONO  =      F    monopole corrections only (constant potential shift)
   LDIPOL =      T    correct potential (dipole corrections)
   IDIPOL =      3    1-x, 2-y, 3-z, 4-all directions 
   EPSILON=  1.0000000 bulk dielectric constant

 Exchange correlation treatment:
   GGA     =    RE    GGA type
   LEXCH   =    40    internal setting for exchange type
   LIBXC   =     F    Libxc                    
   VOSKOWN =     0    Vosko Wilk Nusair interpolation
   LHFCALC =     F    Hartree Fock is set to
   LHFONE  =     F    Hartree Fock one center treatment
   AEXX    =    0.0000 exact exchange contribution

 Linear response parameters
   LEPSILON=     F    determine dielectric tensor
   LRPA    =     F    only Hartree local field effects (RPA)
   LNABLA  =     F    use nabla operator in PAW spheres
   LVEL    =     F    velocity operator in full k-point grid
   CSHIFT  =0.1000    complex shift for real part using Kramers Kronig
   OMEGAMAX=  -1.0    maximum frequency
   DEG_THRESHOLD= 0.2000000E-02 threshold for treating states as degnerate
   RTIME   =   -0.100 relaxation time in fs
  (WPLASMAI=    0.000 imaginary part of plasma frequency in eV, 0.658/RTIME)
   DFIELD  = 0.0000000 0.0000000 0.0000000 field for delta impulse in time

  Optional k-point grid parameters
   LKPOINTS_OPT  =     F    use optional k-point grid
   KPOINTS_OPT_MODE=     1    mode for optional k-point grid

 Orbital magnetization related:
   ORBITALMAG=     F  switch on orbital magnetization
   LCHIMAG   =     F  perturbation theory with respect to B field
   DQ        =  0.001000  dq finite difference perturbation B field
   LLRAUG    =     F  two centre corrections for induced B field



--------------------------------------------------------------------------------------------------------


 Static calculation
 charge density and potential will be updated during run
 non-spin polarized calculation
 Conjugate gradient for all bands (Freysoldt, et al. PRB 79, 241103 (2009))
 preconditioned conjugated gradient                                        
 perform sub-space diagonalisation
    before iterative eigenvector-optimisation
 modified Broyden-mixing scheme, WC =      100.0
 initial mixing is a Kerker type mixing with AMIX =  0.4000 and BMIX =      1.0000
 Hartree-type preconditioning will be used
 using additional bands           91
 reciprocal scheme for non local part
 use partial core corrections
 no Harris-corrections to forces 
 use gradient corrections 
 use of overlap-Matrix (Vanderbilt PP)
 Gauss-broadening in eV      SIGMA  =   0.05


--------------------------------------------------------------------------------------------------------


  energy-cutoff  :      600.00
  volume of cell :     1519.82
      direct lattice vectors                 reciprocal lattice vectors
     8.440984654  0.000000000  0.000000000     0.118469591  0.000000000  0.000000000
     0.000000000  8.440984654  0.000000000     0.000000000  0.118469591  0.000000000
     0.000000000  0.000000000 21.330738491     0.000000000  0.000000000  0.046880702

  length of vectors
     8.440984654  8.440984654 21.330738491     0.118469591  0.118469591  0.046880702



 k-points in units of 2pi/SCALE and weight: pymatgen v2020.8.13 with grid density = 
   0.00000000  0.00000000  0.00000000       0.250
   0.05923480  0.00000000  0.00000000       0.500
   0.05923480  0.05923480  0.00000000       0.250

 k-points in reciprocal lattice and weights: pymatgen v2020.8.13 with grid density = 
   0.00000000  0.00000000  0.00000000       0.250
   0.50000000  0.00000000  0.00000000       0.500
   0.50000000  0.50000000  0.00000000       0.250

 position of ions in fractional coordinates (direct lattice) 
   0.50000000  0.50000000  0.76641229
   0.50000000  0.50000000  0.82017601
   0.00000000  0.75000000  0.35160527
   0.25000000  0.00000000  0.35160527
   0.00000000  0.00000000  0.45053509
   0.25000000  0.75000000  0.45053509
   0.00000000  0.74993927  0.55008324
   0.25006073  0.00000000  0.55008324
   0.00000000  0.00000000  0.64874531
   0.24985833  0.75014167  0.64856955
   0.00000000  0.25000000  0.35160527
   0.25000000  0.50000000  0.35160527
   0.00000000  0.50000000  0.45053509
   0.25000000  0.25000000  0.45053509
   0.00000000  0.25006073  0.55008324
   0.25037838  0.50000000  0.55021952
   0.00000000  0.50000000  0.64861528
   0.24985833  0.24985833  0.64856955
   0.50000000  0.75000000  0.35160527
   0.75000000  0.00000000  0.35160527
   0.50000000  0.00000000  0.45053509
   0.75000000  0.75000000  0.45053509
   0.50000000  0.74962162  0.55021952
   0.74993927  0.00000000  0.55008324
   0.50000000  0.00000000  0.64861528
   0.75014167  0.75014167  0.64856955
   0.50000000  0.25000000  0.35160527
   0.75000000  0.50000000  0.35160527
   0.50000000  0.50000000  0.45053509
   0.75000000  0.25000000  0.45053509
   0.50000000  0.25037838  0.55021952
   0.74962162  0.50000000  0.55021952
   0.50000000  0.50000000  0.65061696
   0.75014167  0.24985833  0.64856955
   0.00000000  0.75000000  0.45053509
   0.25000000  0.00000000  0.45053509
   0.00000000  0.00000000  0.35160527
   0.25000000  0.75000000  0.35160527
   0.00000000  0.75021853  0.65097926
   0.24978147  0.00000000  0.65097926
   0.00000000  0.00000000  0.54980989
   0.24994577  0.75005423  0.54985911
   0.00000000  0.25000000  0.45053509
   0.25000000  0.50000000  0.45053509
   0.00000000  0.50000000  0.35160527
   0.25000000  0.25000000  0.35160527
   0.00000000  0.24978147  0.65097926
   0.24882271  0.50000000  0.65088287
   0.00000000  0.50000000  0.54976267
   0.24994577  0.24994577  0.54985911
   0.50000000  0.75000000  0.45053509
   0.75000000  0.00000000  0.45053509
   0.50000000  0.00000000  0.35160527
   0.75000000  0.75000000  0.35160527
   0.50000000  0.75117729  0.65088287
   0.75021853  0.00000000  0.65097926
   0.50000000  0.00000000  0.54976267
   0.75005423  0.75005423  0.54985911
   0.50000000  0.25000000  0.45053509
   0.75000000  0.50000000  0.45053509
   0.50000000  0.50000000  0.35160527
   0.75000000  0.25000000  0.35160527
   0.50000000  0.24882271  0.65088287
   0.75117729  0.50000000  0.65088287
   0.50000000  0.50000000  0.55023136
   0.75005423  0.24994577  0.54985911

 position of ions in cartesian coordinates  (Angst):
   4.22049233  4.22049233 16.34814023
   4.22049233  4.22049233 17.49496005
   0.00000000  6.33073849  7.50000000
   2.11024616  0.00000000  7.50000000
   0.00000000  0.00000000  9.61024616
   2.11024616  6.33073849  9.61024616
   0.00000000  6.33022585 11.73368172
   2.11075880  0.00000000 11.73368172
   0.00000000  0.00000000 13.83821654
   2.10905031  6.33193435 13.83446740
   0.00000000  2.11024616  7.50000000
   2.11024616  4.22049233  7.50000000
   0.00000000  4.22049233  9.61024616
   2.11024616  2.11024616  9.61024616
   0.00000000  2.11075880 11.73368172
   2.11344006  4.22049233 11.73658877
   0.00000000  4.22049233 13.83544293
   2.10905031  2.10905031 13.83446740
   4.22049233  6.33073849  7.50000000
   6.33073849  0.00000000  7.50000000
   4.22049233  0.00000000  9.61024616
   6.33073849  6.33073849  9.61024616
   4.22049233  6.32754460 11.73658877
   6.33022585  0.00000000 11.73368172
   4.22049233  0.00000000 13.83544293
   6.33193435  6.33193435 13.83446740
   4.22049233  2.11024616  7.50000000
   6.33073849  4.22049233  7.50000000
   4.22049233  4.22049233  9.61024616
   6.33073849  2.11024616  9.61024616
   4.22049233  2.11344006 11.73658877
   6.32754460  4.22049233 11.73658877
   4.22049233  4.22049233 13.87814023
   6.33193435  2.10905031 13.83446740
   0.00000000  6.33073849  9.61024616
   2.11024616  0.00000000  9.61024616
   0.00000000  0.00000000  7.50000000
   2.11024616  6.33073849  7.50000000
   0.00000000  6.33258312 13.88586825
   2.10840153  0.00000000 13.88586825
   0.00000000  0.00000000 11.72785099
   2.10978841  6.33119624 11.72890095
   0.00000000  2.11024616  9.61024616
   2.11024616  4.22049233  9.61024616
   0.00000000  4.22049233  7.50000000
   2.11024616  2.11024616  7.50000000
   0.00000000  2.10840153 13.88586825
   2.10030867  4.22049233 13.88381232
   0.00000000  4.22049233 11.72684365
   2.10978841  2.10978841 11.72890095
   4.22049233  6.33073849  9.61024616
   6.33073849  0.00000000  9.61024616
   4.22049233  0.00000000  7.50000000
   6.33073849  6.33073849  7.50000000
   4.22049233  6.34067598 13.88381232
   6.33258312  0.00000000 13.88586825
   4.22049233  0.00000000 11.72684365
   6.33119624  6.33119624 11.72890095
   4.22049233  2.11024616  9.61024616
   6.33073849  4.22049233  9.61024616
   4.22049233  4.22049233  7.50000000
   6.33073849  2.11024616  7.50000000
   4.22049233  2.10030867 13.88381232
   6.34067598  4.22049233 13.88381232
   4.22049233  4.22049233 11.73684118
   6.33119624  2.10978841 11.72890095



--------------------------------------------------------------------------------------------------------


 k-point   1 :   0.0000 0.0000 0.0000  plane waves:   50745
 k-point   2 :   0.5000 0.0000 0.0000  plane waves:   50798
 k-point   3 :   0.5000 0.5000 0.0000  plane waves:   50752

 maximum and minimum number of plane-waves per node :     12720    12632

 maximum number of plane-waves:     50798
 maximum index in each direction: 
   IXMAX=   16   IYMAX=   16   IZMAX=   42
   IXMIN=  -17   IYMIN=  -17   IZMIN=  -42


 parallel 3D FFT for wavefunctions:
    minimum data exchange during FFTs selected (reduces bandwidth)
 parallel 3D FFT for charge:
    minimum data exchange during FFTs selected (reduces bandwidth)


 total amount of memory used by VASP MPI-rank0    78528. kBytes
=======================================================================

   base      :      30000. kBytes
   nonl-proj :      29343. kBytes
   fftplans  :       3857. kBytes
   grid      :       5885. kBytes
   one-center:        137. kBytes
   wavefun   :       9306. kBytes

     INWAV:  cpu time      0.0001: real time      0.0002
 Broyden mixing: mesh for mixing (old mesh)
   NGX = 33   NGY = 33   NGZ = 85
  (NGX  =108   NGY  =108   NGZ  =256)
  gives a total of  92565 points

 initial charge density was supplied:
 charge density of overlapping atoms calculated
 number of electron     458.0000000 magnetization 
 keeping initial charge density in first step


--------------------------------------------------------------------------------------------------------


 Maximum index for augmentation-charges          334 (set IRDMAX)


--------------------------------------------------------------------------------------------------------


 First call to EWALD:  gamma=   0.154
 Maximum number of real-space cells 4x 4x 2
 Maximum number of reciprocal cells 2x 2x 5

    FEWALD:  cpu time      0.0031: real time      0.0031


--------------------------------------- Iteration      1(   1)  ---------------------------------------


    POTLOK:  cpu time      0.0441: real time      0.0451
    SETDIJ:  cpu time      0.1603: real time      0.1604
    TRIAL :  cpu time      5.4061: real time      5.4963
    CORREC:  cpu time      0.0010: real time      0.0014
    --------------------------------------------
      LOOP:  cpu time      5.6131: real time      5.7364

 eigenvalue-minimisations  :  2304
 total energy-change (2. order) : 0.4173767E+04  (-0.3066659E+05)
 number of electron     458.0000000 magnetization 
 augmentation part      458.0000000 magnetization 

 DIPCOR: dipole corrections for dipol
 direction  3 min pos     1,
 dipolmoment           0.000000      0.000000     -0.000279 electrons x Angstroem
 Tr[quadrupol]     -6318.707526

 energy correction for charged system         0.000000 eV
 dipol+quadrupol energy correction           -0.000000 eV
 added-field ion interaction          0.002270 eV  (added to PSCEN)


 Free energy of the ion-electron system (eV)
  ---------------------------------------------------
  alpha Z        PSCENC =       907.96637419
  Ewald energy   TEWEN  =    137076.31378769
  -Hartree energ DENC   =   -173175.34389471
  -exchange      EXHF   =         0.00000000
  -V(xc)+E(xc)   XCENC  =      1766.57114758
  PAW double counting   =     32340.89285313   -36127.75492224
  entropy T*S    EENTRO =        -0.02573420
  eigenvalues    EBANDS =     -6811.42762979
  atomic energy  EATOM  =     48196.57542979
  ---------------------------------------------------
  free energy    TOTEN  =      4173.76741144 eV

  energy without entropy =     4173.79314564  energy(sigma->0) =     4173.78027854


--------------------------------------------------------------------------------------------------------




--------------------------------------- Iteration      1(   2)  ---------------------------------------


    TRIAL :  cpu time      2.2492: real time      2.2498
    CORREC:  cpu time      0.0003: real time      0.0003
    --------------------------------------------
      LOOP:  cpu time      2.2548: real time      2.2650

 eigenvalue-minimisations  :  2304
 total energy-change (2. order) :-0.4289161E+04  (-0.4215595E+04)
 number of electron     458.0000000 magnetization 
 augmentation part      458.0000000 magnetization 

 DIPCOR: dipole corrections for dipol
 direction  3 min pos     1,
 dipolmoment           0.000000      0.000000     -0.000279 electrons x Angstroem
 Tr[quadrupol]     -6318.707526

 energy correction for charged system         0.000000 eV
 dipol+quadrupol energy correction           -0.000000 eV
 added-field ion interaction          0.002270 eV  (added to PSCEN)


 Free energy of the ion-electron system (eV)
  ---------------------------------------------------
  alpha Z        PSCENC =       907.96637419
  Ewald energy   TEWEN  =    137076.31378769
  -Hartree energ DENC   =   -173175.34389471
  -exchange      EXHF   =         0.00000000
  -V(xc)+E(xc)   XCENC  =      1766.57114758
  PAW double counting   =     32340.89285313   -36127.75492224
  entropy T*S    EENTRO =        -0.00000000
  eigenvalues    EBANDS =    -11100.61429916
  atomic energy  EATOM  =     48196.57542979
  ---------------------------------------------------
  free energy    TOTEN  =      -115.39352373 eV

  energy without entropy =     -115.39352373  energy(sigma->0) =     -115.39352373


--------------------------------------------------------------------------------------------------------




--------------------------------------- Iteration      1(   3)  ---------------------------------------


    TRIAL :  cpu time      2.3648: real time      2.3651
    CORREC:  cpu time      0.0010: real time      0.0010
    --------------------------------------------
      LOOP:  cpu time      2.3712: real time      2.3801

 eigenvalue-minimisations  :  2304
 total energy-change (2. order) :-0.3107402E+03  (-0.3086967E+03)
 number of electron     458.0000000 magnetization 
 augmentation part      458.0000000 magnetization 

 DIPCOR: dipole corrections for dipol
 direction  3 min pos     1,
 dipolmoment           0.000000      0.000000     -0.000279 electrons x Angstroem
 Tr[quadrupol]     -6318.707526

 energy correction for charged system         0.000000 eV
 dipol+quadrupol energy correction           -0.000000 eV
 added-field ion interaction          0.002270 eV  (added to PSCEN)


 Free energy of the ion-electron system (eV)
  ---------------------------------------------------
  alpha Z        PSCENC =       907.96637419
  Ewald energy   TEWEN  =    137076.31378769
  -Hartree energ DENC   =   -173175.34389471
  -exchange      EXHF   =         0.00000000
  -V(xc)+E(xc)   XCENC  =      1766.57114758
  PAW double counting   =     32340.89285313   -36127.75492224
  entropy T*S    EENTRO =        -0.00000000
  eigenvalues    EBANDS =    -11411.35453771
  atomic energy  EATOM  =     48196.57542979
  ---------------------------------------------------
  free energy    TOTEN  =      -426.13376228 eV

  energy without entropy =     -426.13376228  energy(sigma->0) =     -426.13376228


--------------------------------------------------------------------------------------------------------




--------------------------------------- Iteration      1(   4)  ---------------------------------------


    TRIAL :  cpu time      2.3658: real time      2.3660
    CORREC:  cpu time      0.0003: real time      0.0003
    --------------------------------------------
      LOOP:  cpu time      2.3800: real time      2.3805

 eigenvalue-minimisations  :  2368
 total energy-change (2. order) :-0.5966812E+01  (-0.5959866E+01)
 number of electron     458.0000000 magnetization 
 augmentation part      458.0000000 magnetization 

 DIPCOR: dipole corrections for dipol
 direction  3 min pos     1,
 dipolmoment           0.000000      0.000000     -0.000279 electrons x Angstroem
 Tr[quadrupol]     -6318.707526

 energy correction for charged system         0.000000 eV
 dipol+quadrupol energy correction           -0.000000 eV
 added-field ion interaction          0.002270 eV  (added to PSCEN)


 Free energy of the ion-electron system (eV)
  ---------------------------------------------------
  alpha Z        PSCENC =       907.96637419
  Ewald energy   TEWEN  =    137076.31378769
  -Hartree energ DENC   =   -173175.34389471
  -exchange      EXHF   =         0.00000000
  -V(xc)+E(xc)   XCENC  =      1766.57114758
  PAW double counting   =     32340.89285313   -36127.75492224
  entropy T*S    EENTRO =        -0.00000000
  eigenvalues    EBANDS =    -11417.32134964
  atomic energy  EATOM  =     48196.57542979
  ---------------------------------------------------
  free energy    TOTEN  =      -432.10057421 eV

  energy without entropy =     -432.10057421  energy(sigma->0) =     -432.10057421


--------------------------------------------------------------------------------------------------------




--------------------------------------- Iteration      1(   5)  ---------------------------------------


    TRIAL :  cpu time      2.3737: real time      2.3740
    CORREC:  cpu time      0.0005: real time      0.0005
    CHARGE:  cpu time      0.0746: real time      0.0750
    --------------------------------------------
      LOOP:  cpu time      2.4546: real time      2.4637

 eigenvalue-minimisations  :  2304
 total energy-change (2. order) :-0.7705907E-01  (-0.7705632E-01)
 number of electron     457.9999357 magnetization 
 augmentation part      159.7015103 magnetization 

 DIPCOR: dipole corrections for dipol
 direction  3 min pos     1,
 dipolmoment           0.000000      0.000000     -0.000279 electrons x Angstroem
 Tr[quadrupol]     -6318.707526

 energy correction for charged system         0.000000 eV
 dipol+quadrupol energy correction           -0.000000 eV
 added-field ion interaction          0.002270 eV  (added to PSCEN)


 Free energy of the ion-electron system (eV)
  ---------------------------------------------------
  alpha Z        PSCENC =       907.96637419
  Ewald energy   TEWEN  =    137076.31378769
  -Hartree energ DENC   =   -173175.34389471
  -exchange      EXHF   =         0.00000000
  -V(xc)+E(xc)   XCENC  =      1766.57114758
  PAW double counting   =     32340.89285313   -36127.75492224
  entropy T*S    EENTRO =        -0.00000000
  eigenvalues    EBANDS =    -11417.39840871
  atomic energy  EATOM  =     48196.57542979
  ---------------------------------------------------
  free energy    TOTEN  =      -432.17763328 eV

  energy without entropy =     -432.17763328  energy(sigma->0) =     -432.17763328


--------------------------------------------------------------------------------------------------------




--------------------------------------- Iteration      1(   6)  ---------------------------------------


    POTLOK:  cpu time      0.0328: real time      0.0328
    SETDIJ:  cpu time      0.1847: real time      0.1847
    TRIAL :  cpu time      0.6736: real time      0.6736
    CORREC:  cpu time      0.5263: real time      0.5265
    CHARGE:  cpu time      0.0544: real time      0.0545
    --------------------------------------------
      LOOP:  cpu time      1.4860: real time      1.4865

 eigenvalue-minimisations  :     0
 total energy-change (2. order) : 0.1727716E+03  (-0.9558259E+02)
 number of electron     457.9999249 magnetization 
 augmentation part      156.7870818 magnetization 

 DIPCOR: dipole corrections for dipol
 direction  3 min pos     1,
 dipolmoment           0.000000      0.000000      0.176798 electrons x Angstroem
 Tr[quadrupol]     -6356.209764

 energy correction for charged system         0.000000 eV
 dipol+quadrupol energy correction           -0.001861 eV
 added-field ion interaction         -1.437659 eV  (added to PSCEN)


 Free energy of the ion-electron system (eV)
  ---------------------------------------------------
  alpha Z        PSCENC =       904.44870821
  Ewald energy   TEWEN  =    137076.31378769
  -Hartree energ DENC   =   -177062.77653274
  -exchange      EXHF   =         0.00000000
  -V(xc)+E(xc)   XCENC  =      1890.20395842
  PAW double counting   =     37145.30701102   -40891.47695031
  entropy T*S    EENTRO =        -0.00000000
  eigenvalues    EBANDS =     -7518.00139601
  atomic energy  EATOM  =     48196.57542979
  ---------------------------------------------------
  free energy    TOTEN  =      -259.40598393 eV

  energy without entropy =     -259.40598393  energy(sigma->0) =     -259.40598393


--------------------------------------------------------------------------------------------------------




--------------------------------------- Iteration      1(   7)  ---------------------------------------


    POTLOK:  cpu time      0.0292: real time      0.0292
    SETDIJ:  cpu time      0.1889: real time      0.1889
    TRIAL :  cpu time      0.5998: real time      0.6005
    CORREC:  cpu time      0.5119: real time      0.5119
    CHARGE:  cpu time      0.0545: real time      0.0545
    --------------------------------------------
      LOOP:  cpu time      1.3897: real time      1.3996

 eigenvalue-minimisations  :     0
 total energy-change (2. order) :-0.9595352E+02  (-0.6725254E+01)
 number of electron     457.9999240 magnetization 
 augmentation part      154.9275291 magnetization 

 DIPCOR: dipole corrections for dipol
 direction  3 min pos     1,
 dipolmoment           0.000000      0.000000      0.158848 electrons x Angstroem
 Tr[quadrupol]     -6361.182795

 energy correction for charged system         0.000000 eV
 dipol+quadrupol energy correction           -0.001502 eV
 added-field ion interaction         -1.291697 eV  (added to PSCEN)


 Free energy of the ion-electron system (eV)
  ---------------------------------------------------
  alpha Z        PSCENC =       906.28471143
  Ewald energy   TEWEN  =    137076.31378769
  -Hartree energ DENC   =   -175225.60568441
  -exchange      EXHF   =         0.00000000
  -V(xc)+E(xc)   XCENC  =      1823.47392573
  PAW double counting   =     36035.06690972   -39850.79855493
  entropy T*S    EENTRO =        -0.00000000
  eigenvalues    EBANDS =     -9316.67003091
  atomic energy  EATOM  =     48196.57542979
  ---------------------------------------------------
  free energy    TOTEN  =      -355.35950589 eV

  energy without entropy =     -355.35950589  energy(sigma->0) =     -355.35950589


--------------------------------------------------------------------------------------------------------




--------------------------------------- Iteration      1(   8)  ---------------------------------------


    POTLOK:  cpu time      0.0287: real time      0.0287
    SETDIJ:  cpu time      0.1882: real time      0.1882
    TRIAL :  cpu time      0.6030: real time      0.6030
    CORREC:  cpu time      0.5147: real time      0.5148
    CHARGE:  cpu time      0.0546: real time      0.0546
    --------------------------------------------
      LOOP:  cpu time      1.4038: real time      1.4041

 eigenvalue-minimisations  :     0
 total energy-change (2. order) :-0.6740026E+01  (-0.4174093E+01)
 number of electron     457.9999223 magnetization 
 augmentation part      155.0364315 magnetization 

 DIPCOR: dipole corrections for dipol
 direction  3 min pos     1,
 dipolmoment           0.000000      0.000000      0.109296 electrons x Angstroem
 Tr[quadrupol]     -6359.421250

 energy correction for charged system         0.000000 eV
 dipol+quadrupol energy correction           -0.000711 eV
 added-field ion interaction         -0.888756 eV  (added to PSCEN)


 Free energy of the ion-electron system (eV)
  ---------------------------------------------------
  alpha Z        PSCENC =       906.80031100
  Ewald energy   TEWEN  =    137076.31378769
  -Hartree energ DENC   =   -175115.69729052
  -exchange      EXHF   =         0.00000000
  -V(xc)+E(xc)   XCENC  =      1814.06721900
  PAW double counting   =     35922.20906712   -39668.39438663
  entropy T*S    EENTRO =        -0.00000000
  eigenvalues    EBANDS =     -9493.97366966
  atomic energy  EATOM  =     48196.57542979
  ---------------------------------------------------
  free energy    TOTEN  =      -362.09953224 eV

  energy without entropy =     -362.09953224  energy(sigma->0) =     -362.09953224


--------------------------------------------------------------------------------------------------------




--------------------------------------- Iteration      1(   9)  ---------------------------------------


    POTLOK:  cpu time      0.0296: real time      0.0296
    SETDIJ:  cpu time      0.1871: real time      0.1871
    TRIAL :  cpu time      0.6013: real time      0.6014
    CORREC:  cpu time      0.5144: real time      0.5145
    CHARGE:  cpu time      0.0546: real time      0.0546
    --------------------------------------------
      LOOP:  cpu time      1.3927: real time      1.4018

 eigenvalue-minimisations  :     0
 total energy-change (2. order) :-0.4093289E+01  (-0.1702118E+01)
 number of electron     457.9999223 magnetization 
 augmentation part      155.0562144 magnetization 

 DIPCOR: dipole corrections for dipol
 direction  3 min pos     1,
 dipolmoment           0.000000      0.000000      0.144611 electrons x Angstroem
 Tr[quadrupol]     -6352.230898

 energy correction for charged system         0.000000 eV
 dipol+quadrupol energy correction           -0.001245 eV
 added-field ion interaction         -1.175930 eV  (added to PSCEN)


 Free energy of the ion-electron system (eV)
  ---------------------------------------------------
  alpha Z        PSCENC =       907.18669278
  Ewald energy   TEWEN  =    137076.31378769
  -Hartree energ DENC   =   -174984.26663700
  -exchange      EXHF   =         0.00000000
  -V(xc)+E(xc)   XCENC  =      1813.53519477
  PAW double counting   =     35836.53243539   -39617.83150019
  entropy T*S    EENTRO =        -0.00000000
  eigenvalues    EBANDS =     -9594.23822398
  atomic energy  EATOM  =     48196.57542979
  ---------------------------------------------------
  free energy    TOTEN  =      -366.19282076 eV

  energy without entropy =     -366.19282076  energy(sigma->0) =     -366.19282076


--------------------------------------------------------------------------------------------------------




--------------------------------------- Iteration      1(  10)  ---------------------------------------


    POTLOK:  cpu time      0.0294: real time      0.0294
    SETDIJ:  cpu time      0.1870: real time      0.1870
    TRIAL :  cpu time      0.6008: real time      0.6008
    CORREC:  cpu time      0.5127: real time      0.5127
    CHARGE:  cpu time      0.0548: real time      0.0548
    --------------------------------------------
      LOOP:  cpu time      1.3990: real time      1.3992

 eigenvalue-minimisations  :     0
 total energy-change (2. order) :-0.1715547E+01  (-0.5877077E+00)
 number of electron     457.9999229 magnetization 
 augmentation part      155.0156224 magnetization 

 DIPCOR: dipole corrections for dipol
 direction  3 min pos     1,
 dipolmoment           0.000000      0.000000      0.168416 electrons x Angstroem
 Tr[quadrupol]     -6350.933784

 energy correction for charged system         0.000000 eV
 dipol+quadrupol energy correction           -0.001689 eV
 added-field ion interaction         -1.369502 eV  (added to PSCEN)


 Free energy of the ion-electron system (eV)
  ---------------------------------------------------
  alpha Z        PSCENC =       906.84753692
  Ewald energy   TEWEN  =    137076.31378769
  -Hartree energ DENC   =   -174805.43355844
  -exchange      EXHF   =         0.00000000
  -V(xc)+E(xc)   XCENC  =      1811.84601726
  PAW double counting   =     35722.94148961   -39512.49101666
  entropy T*S    EENTRO =        -0.00000000
  eigenvalues    EBANDS =     -9764.50805384
  atomic energy  EATOM  =     48196.57542979
  ---------------------------------------------------
  free energy    TOTEN  =      -367.90836768 eV

  energy without entropy =     -367.90836768  energy(sigma->0) =     -367.90836768


--------------------------------------------------------------------------------------------------------




--------------------------------------- Iteration      1(  11)  ---------------------------------------


    POTLOK:  cpu time      0.0290: real time      0.0290
    SETDIJ:  cpu time      0.1871: real time      0.1871
    TRIAL :  cpu time      0.6002: real time      0.6003
    CORREC:  cpu time      0.5129: real time      0.5129
    CHARGE:  cpu time      0.0545: real time      0.0545
    --------------------------------------------
      LOOP:  cpu time      1.3891: real time      1.3985

 eigenvalue-minimisations  :     0
 total energy-change (2. order) :-0.5890258E+00  (-0.2123441E+00)
 number of electron     457.9999234 magnetization 
 augmentation part      155.1077996 magnetization 

 DIPCOR: dipole corrections for dipol
 direction  3 min pos     1,
 dipolmoment           0.000000      0.000000      0.151110 electrons x Angstroem
 Tr[quadrupol]     -6351.740014

 energy correction for charged system         0.000000 eV
 dipol+quadrupol energy correction           -0.001359 eV
 added-field ion interaction         -1.228776 eV  (added to PSCEN)


 Free energy of the ion-electron system (eV)
  ---------------------------------------------------
  alpha Z        PSCENC =       906.62740500
  Ewald energy   TEWEN  =    137076.31378769
  -Hartree energ DENC   =   -174738.27326823
  -exchange      EXHF   =         0.00000000
  -V(xc)+E(xc)   XCENC  =      1810.82832959
  PAW double counting   =     35661.54885988   -39443.25519343
  entropy T*S    EENTRO =        -0.00000000
  eigenvalues    EBANDS =     -9838.86274381
  atomic energy  EATOM  =     48196.57542979
  ---------------------------------------------------
  free energy    TOTEN  =      -368.49739352 eV

  energy without entropy =     -368.49739352  energy(sigma->0) =     -368.49739352


--------------------------------------------------------------------------------------------------------




--------------------------------------- Iteration      1(  12)  ---------------------------------------


    POTLOK:  cpu time      0.0309: real time      0.0309
    SETDIJ:  cpu time      0.1855: real time      0.1855
    TRIAL :  cpu time      0.6020: real time      0.6020
    CORREC:  cpu time      0.5116: real time      0.5117
    CHARGE:  cpu time      0.0540: real time      0.0540
    --------------------------------------------
      LOOP:  cpu time      1.3887: real time      1.3988

 eigenvalue-minimisations  :     0
 total energy-change (2. order) :-0.2123354E+00  (-0.7331806E-01)
 number of electron     457.9999235 magnetization 
 augmentation part      155.2100480 magnetization 

 DIPCOR: dipole corrections for dipol
 direction  3 min pos     1,
 dipolmoment           0.000000      0.000000      0.137593 electrons x Angstroem
 Tr[quadrupol]     -6352.458340

 energy correction for charged system         0.000000 eV
 dipol+quadrupol energy correction           -0.001127 eV
 added-field ion interaction         -1.118859 eV  (added to PSCEN)


 Free energy of the ion-electron system (eV)
  ---------------------------------------------------
  alpha Z        PSCENC =       906.73237172
  Ewald energy   TEWEN  =    137076.31378769
  -Hartree energ DENC   =   -174761.98321994
  -exchange      EXHF   =         0.00000000
  -V(xc)+E(xc)   XCENC  =      1811.07046122
  PAW double counting   =     35648.12125307   -39427.99739447
  entropy T*S    EENTRO =        -0.00000000
  eigenvalues    EBANDS =     -9817.54241799
  atomic energy  EATOM  =     48196.57542979
  ---------------------------------------------------
  free energy    TOTEN  =      -368.70972891 eV

  energy without entropy =     -368.70972891  energy(sigma->0) =     -368.70972891


--------------------------------------------------------------------------------------------------------




--------------------------------------- Iteration      1(  13)  ---------------------------------------


    POTLOK:  cpu time      0.0291: real time      0.0291
    SETDIJ:  cpu time      0.1869: real time      0.1869
    TRIAL :  cpu time      0.6000: real time      0.6000
    CORREC:  cpu time      0.5131: real time      0.5131
    CHARGE:  cpu time      0.0544: real time      0.0544
    --------------------------------------------
      LOOP:  cpu time      1.3909: real time      1.3981

 eigenvalue-minimisations  :     0
 total energy-change (2. order) :-0.7334199E-01  (-0.3209705E-01)
 number of electron     457.9999235 magnetization 
 augmentation part      155.2444363 magnetization 

 DIPCOR: dipole corrections for dipol
 direction  3 min pos     1,
 dipolmoment           0.000000      0.000000      0.132529 electrons x Angstroem
 Tr[quadrupol]     -6352.875925

 energy correction for charged system         0.000000 eV
 dipol+quadrupol energy correction           -0.001046 eV
 added-field ion interaction         -1.077679 eV  (added to PSCEN)


 Free energy of the ion-electron system (eV)
  ---------------------------------------------------
  alpha Z        PSCENC =       906.84893820
  Ewald energy   TEWEN  =    137076.31378769
  -Hartree energ DENC   =   -174791.64436942
  -exchange      EXHF   =         0.00000000
  -V(xc)+E(xc)   XCENC  =      1811.37308166
  PAW double counting   =     35648.07244430   -39430.81625989
  entropy T*S    EENTRO =        -0.00000000
  eigenvalues    EBANDS =     -9785.50612323
  atomic energy  EATOM  =     48196.57542979
  ---------------------------------------------------
  free energy    TOTEN  =      -368.78307090 eV

  energy without entropy =     -368.78307090  energy(sigma->0) =     -368.78307090


--------------------------------------------------------------------------------------------------------




--------------------------------------- Iteration      1(  14)  ---------------------------------------


    POTLOK:  cpu time      0.0291: real time      0.0291
    SETDIJ:  cpu time      0.1875: real time      0.1875
    TRIAL :  cpu time      0.6011: real time      0.6016
    CORREC:  cpu time      0.5117: real time      0.5117
    CHARGE:  cpu time      0.0546: real time      0.0546
    --------------------------------------------
      LOOP:  cpu time      1.3882: real time      1.3999

 eigenvalue-minimisations  :     0
 total energy-change (2. order) :-0.3212883E-01  (-0.1504920E-01)
 number of electron     457.9999234 magnetization 
 augmentation part      155.2294086 magnetization 

 DIPCOR: dipole corrections for dipol
 direction  3 min pos     1,
 dipolmoment           0.000000      0.000000      0.131150 electrons x Angstroem
 Tr[quadrupol]     -6353.197887

 energy correction for charged system         0.000000 eV
 dipol+quadrupol energy correction           -0.001024 eV
 added-field ion interaction         -1.066465 eV  (added to PSCEN)


 Free energy of the ion-electron system (eV)
  ---------------------------------------------------
  alpha Z        PSCENC =       906.89100132
  Ewald energy   TEWEN  =    137076.31378769
  -Hartree energ DENC   =   -174804.92444704
  -exchange      EXHF   =         0.00000000
  -V(xc)+E(xc)   XCENC  =      1811.38267467
  PAW double counting   =     35648.52865213   -39432.84531679
  entropy T*S    EENTRO =        -0.00000000
  eigenvalues    EBANDS =     -9770.73698151
  atomic energy  EATOM  =     48196.57542979
  ---------------------------------------------------
  free energy    TOTEN  =      -368.81519973 eV

  energy without entropy =     -368.81519973  energy(sigma->0) =     -368.81519973


--------------------------------------------------------------------------------------------------------




--------------------------------------- Iteration      1(  15)  ---------------------------------------


    POTLOK:  cpu time      0.0289: real time      0.0289
    SETDIJ:  cpu time      0.1867: real time      0.1867
    TRIAL :  cpu time      0.6009: real time      0.6010
    CORREC:  cpu time      0.5128: real time      0.5129
[...]
    273       7.6009      0.00000
    274       7.6010      0.00000
    275       7.7018      0.00000
    276       7.9281      0.00000
    277       8.0038      0.00000
    278       8.0039      0.00000
    279       8.0152      0.00000
    280       8.1653      0.00000
    281       8.1656      0.00000
    282       8.1731      0.00000
    283       8.1746      0.00000
    284       8.1874      0.00000
    285       8.1911      0.00000
    286       8.1969      0.00000
    287       8.1970      0.00000
    288       8.4621      0.00000
    289       8.4627      0.00000
    290       8.4633      0.00000
    291       8.6292      0.00000
    292       8.6551      0.00000
    293       8.6823      0.00000
    294       8.6950      0.00000
    295       8.7076      0.00000
    296       8.7502      0.00000
    297       8.7568      0.00000
    298       8.7675      0.00000
    299       8.7706      0.00000
    300       8.9909      0.00000
    301       9.0595      0.00000
    302       9.0869      0.00000
    303       9.0882      0.00000
    304       9.2055      0.00000
    305       9.3859      0.00000
    306       9.4543      0.00000
    307       9.5255      0.00000
    308       9.5844      0.00000
    309       9.6411      0.00000
    310       9.6765      0.00000
    311       9.6781      0.00000
    312       9.9503      0.00000
    313      10.0201      0.00000
    314      10.0477      0.00000
    315      10.0555      0.00000
    316      10.0709      0.00000
    317      10.4514      0.00000
    318      10.4964      0.00000
    319      10.5937      0.00000
    320      10.5994      0.00000


--------------------------------------------------------------------------------------------------------


 soft charge-density along one line, spin component           1
         0         1         2         3         4         5         6         7         8         9
 total charge-density along one line

 pseudopotential strength for first ion, spin component:           1
 10.253  13.637   0.000   0.037   0.000  -0.000  -0.106  -0.000
 13.637  18.136   0.000   0.049   0.000  -0.000  -0.140  -0.000
  0.000   0.000  -4.280  -0.000  -0.000   8.367   0.000   0.000
  0.037   0.049  -0.000  -4.337  -0.000   0.000   8.463  -0.000
  0.000   0.000  -0.000  -0.000  -4.280   0.000  -0.000   8.367
 -0.000  -0.000   8.367   0.000   0.000 -18.491  -0.000  -0.000
 -0.106  -0.140   0.000   8.463  -0.000  -0.000 -18.647   0.000
 -0.000  -0.000   0.000  -0.000   8.367  -0.000   0.000 -18.491
 total augmentation occupancy for first ion, spin component:           1
  7.801  -3.563   0.000   2.024   0.000   0.000   0.380  -0.000
 -3.563   1.989   0.000  -1.550   0.000   0.000  -0.233   0.000
  0.000   0.000   0.843   0.000   0.000   0.063   0.000   0.000
  2.024  -1.550   0.000   2.242   0.000   0.000   0.216   0.000
  0.000   0.000   0.000   0.000   0.843   0.000   0.000   0.063
  0.000   0.000   0.063   0.000   0.000   0.005   0.000   0.000
  0.380  -0.233   0.000   0.216   0.000   0.000   0.030   0.000
 -0.000   0.000   0.000   0.000   0.063   0.000   0.000   0.005


------------------------ aborting loop because EDIFF is reached ----------------------------------------


    FORLOC:  cpu time      0.0040: real time      0.0040
    FORNL :  cpu time      0.4245: real time      0.4249
    STRESS:  cpu time      1.3399: real time      1.3402
    FORCOR:  cpu time      0.0267: real time      0.0267
    OFIELD:  cpu time      0.0001: real time      0.0001
    FORVDW:  cpu time      7.9129: real time      7.9378

  FORCE on cell =-STRESS in cart. coord.  units (eV):
  Direction    XX          YY          ZZ          XY          YZ          ZX
  --------------------------------------------------------------------------------------
  Alpha Z   907.96410   907.96410   907.96410
  Ewald  157577.61653157577.61653************     0.00000     0.00000    -0.00000
  Hartree168001.89943168001.89943************    -0.00000    -0.00000    -0.00000
  E(xc)   -2509.90385 -2509.90385 -2516.38414     0.00000     0.00000     0.00000
  Local  ************************335161.11910    -0.00000     0.00000    -0.00000
  n-local -2812.88644 -2813.66225 -2844.48867    -0.00001     0.00000     0.00000
  augment  1052.75350  1052.75350  1042.63099    -0.00000    -0.00000    -0.00000
  Kinetic  7500.82392  7503.31453  7523.19047     0.00001     0.00001    -0.00001
  Fock        0.00000     0.00000     0.00000     0.00000     0.00000     0.00000
  vdW       -21.67171   -21.67173   -16.53534    -0.00000    -0.00000    -0.00000
  -------------------------------------------------------------------------------------
  Total     -26.02810   -26.02810    -1.75520     0.00000     0.00000     0.00000
  in kB     -27.43853   -27.43853    -1.85031     0.00000     0.00000     0.00000
  external pressure =      -18.91 kB  Pullay stress =        0.00 kB


 VOLUME and BASIS-vectors are now :
 -----------------------------------------------------------------------------
  energy-cutoff  :      600.00
  volume of cell :     1519.82
      direct lattice vectors                 reciprocal lattice vectors
     8.440984654  0.000000000  0.000000000     0.118469591  0.000000000  0.000000000
     0.000000000  8.440984654  0.000000000     0.000000000  0.118469591  0.000000000
     0.000000000  0.000000000 21.330738491     0.000000000  0.000000000  0.046880702

  length of vectors
     8.440984654  8.440984654 21.330738491     0.118469591  0.118469591  0.046880702


 FORCES acting on ions:
    Electron-Ion                     Ewald-Force                    Non-Local-Force
 -----------------------------------------------------------------------------------------------
   0.140E-12 0.566E-12 -.831E+03   0.666E-14 0.444E-14 0.804E+03   0.000E+00 -.265E-22 0.267E+02
   0.489E-12 0.267E-11 -.144E+04   -.688E-14 -.377E-14 0.150E+04   0.000E+00 0.662E-23 -.596E+02
   -.742E-13 -.126E+00 0.208E+04   0.560E-13 0.126E+00 -.207E+04   0.000E+00 -.208E-03 -.716E+01
   0.126E+00 0.505E-13 0.208E+04   -.126E+00 0.671E-13 -.207E+04   0.208E-03 -.265E-22 -.716E+01
   -.550E-13 -.131E-12 0.713E+03   -.150E-10 0.150E-10 -.713E+03   0.000E+00 0.000E+00 0.501E+00
   0.453E+00 -.453E+00 0.714E+03   -.448E+00 0.448E+00 -.714E+03   -.262E-02 0.262E-02 0.528E+00
   -.591E-13 -.278E+01 -.643E+03   0.157E-11 0.277E+01 0.643E+03   0.000E+00 0.143E-01 -.157E+00
   0.278E+01 -.131E-12 -.643E+03   -.277E+01 -.151E-11 0.643E+03   -.143E-01 0.000E+00 -.157E+00
   -.399E-13 -.579E-12 -.200E+04   0.444E-12 -.416E-12 0.200E+04   -.662E-23 0.000E+00 0.608E+01
   0.177E+02 -.177E+02 -.198E+04   -.178E+02 0.178E+02 0.198E+04   0.938E-01 -.938E-01 0.617E+01
   -.762E-13 0.126E+00 0.208E+04   -.277E-12 -.126E+00 -.207E+04   0.132E-22 0.208E-03 -.716E+01
   0.120E+00 0.613E-12 0.208E+04   -.118E+00 0.131E-10 -.207E+04   -.166E-02 -.397E-22 -.716E+01
   -.574E-13 0.818E-12 0.714E+03   -.165E-10 0.000E+00 -.714E+03   0.124E-22 0.000E+00 0.466E+00
   0.453E+00 0.453E+00 0.714E+03   -.448E+00 -.448E+00 -.714E+03   -.262E-02 -.262E-02 0.528E+00
   -.668E-13 0.278E+01 -.643E+03   0.304E-11 -.277E+01 0.643E+03   -.265E-22 -.143E-01 -.157E+00
   0.399E+01 0.109E-11 -.636E+03   -.392E+01 0.178E-14 0.636E+03   -.786E-01 0.265E-22 -.261E+00
   -.642E-13 -.444E-12 -.199E+04   -.355E-13 -.995E-13 0.198E+04   0.000E+00 0.000E+00 0.609E+01
   0.177E+02 0.177E+02 -.198E+04   -.178E+02 -.178E+02 0.198E+04   0.938E-01 0.938E-01 0.617E+01
   0.929E-12 -.120E+00 0.208E+04   -.129E-10 0.118E+00 -.207E+04   0.132E-22 0.166E-02 -.716E+01
   -.126E+00 0.125E-12 0.208E+04   0.126E+00 0.471E-13 -.207E+04   -.208E-03 -.232E-22 -.716E+01
   0.840E-12 -.673E-14 0.714E+03   0.145E-11 0.150E-10 -.714E+03   0.000E+00 0.000E+00 0.466E+00
   -.453E+00 -.453E+00 0.714E+03   0.448E+00 0.448E+00 -.714E+03   0.262E-02 0.262E-02 0.528E+00
   0.837E-12 -.399E+01 -.636E+03   -.141E-11 0.392E+01 0.636E+03   0.132E-22 0.786E-01 -.261E+00
   -.278E+01 -.148E-12 -.643E+03   0.277E+01 -.156E-11 0.643E+03   0.143E-01 -.132E-22 -.157E+00
   0.947E-12 -.673E-13 -.199E+04   0.782E-13 -.355E-14 0.198E+04   -.199E-22 0.000E+00 0.609E+01
   -.177E+02 -.177E+02 -.198E+04   0.178E+02 0.178E+02 0.198E+04   -.938E-01 -.938E-01 0.617E+01
   0.922E-12 0.120E+00 0.208E+04   -.131E-10 -.118E+00 -.207E+04   0.265E-22 -.166E-02 -.716E+01
   -.120E+00 0.175E-12 0.208E+04   0.118E+00 0.131E-10 -.207E+04   0.166E-02 0.529E-22 -.716E+01
   0.883E-12 0.275E-11 0.714E+03   -.782E-13 0.355E-14 -.715E+03   0.265E-22 0.000E+00 0.600E+00
   -.453E+00 0.453E+00 0.714E+03   0.448E+00 -.448E+00 -.714E+03   0.262E-02 -.262E-02 0.528E+00
   0.839E-12 0.399E+01 -.636E+03   -.284E-13 -.392E+01 0.636E+03   0.000E+00 -.786E-01 -.261E+00
   -.399E+01 -.171E-11 -.636E+03   0.392E+01 0.000E+00 0.636E+03   0.786E-01 0.000E+00 -.261E+00
   0.926E-12 0.194E-11 -.192E+04   -.426E-13 -.391E-13 0.191E+04   0.000E+00 0.000E+00 0.416E+01
   -.177E+02 0.177E+02 -.198E+04   0.178E+02 -.178E+02 0.198E+04   -.938E-01 0.938E-01 0.617E+01
   -.729E-13 -.393E+00 0.535E+03   0.409E-13 0.388E+00 -.535E+03   0.000E+00 0.675E-02 -.910E-01
   0.393E+00 0.185E-13 0.535E+03   -.388E+00 0.391E-13 -.535E+03   -.675E-02 0.132E-22 -.910E-01
   -.844E-13 -.124E-11 0.156E+04   0.853E-11 -.844E-11 -.156E+04   0.000E+00 0.000E+00 0.341E+01
   0.914E-01 -.914E-01 0.156E+04   -.907E-01 0.907E-01 -.156E+04   -.106E-02 0.106E-02 0.341E+01
   -.312E-13 -.722E+01 -.152E+04   -.871E-12 0.716E+01 0.153E+04   0.000E+00 0.533E-01 -.495E+01
   0.722E+01 -.101E-12 -.152E+04   -.716E+01 0.881E-12 0.153E+04   -.533E-01 0.000E+00 -.495E+01
   -.583E-13 0.173E-12 -.478E+03   -.853E-13 0.639E-13 0.478E+03   0.000E+00 -.298E-22 0.257E+00
   0.250E+01 -.250E+01 -.473E+03   -.249E+01 0.249E+01 0.473E+03   -.633E-02 0.633E-02 0.326E+00
   -.859E-13 0.393E+00 0.535E+03   0.142E-13 -.388E+00 -.535E+03   0.000E+00 -.675E-02 -.910E-01
   0.362E+00 0.519E-12 0.535E+03   -.388E+00 -.764E-11 -.535E+03   0.350E-01 0.364E-22 -.111E+00
   -.867E-13 -.626E-12 0.156E+04   0.845E-11 -.796E-12 -.156E+04   0.000E+00 -.414E-24 0.341E+01
   0.914E-01 0.914E-01 0.156E+04   -.907E-01 -.907E-01 -.156E+04   -.106E-02 -.106E-02 0.341E+01
   -.289E-13 0.722E+01 -.152E+04   -.774E-12 -.716E+01 0.153E+04   -.662E-23 -.533E-01 -.495E+01
   0.229E+02 0.781E-12 -.149E+04   -.226E+02 0.810E-11 0.150E+04   -.323E+00 0.000E+00 -.496E+01
   -.495E-13 0.108E-12 -.474E+03   -.741E-11 0.711E-14 0.473E+03   0.132E-22 0.000E+00 0.281E+00
   0.250E+01 0.250E+01 -.473E+03   -.249E+01 -.249E+01 0.473E+03   -.633E-02 -.633E-02 0.326E+00
   0.327E-12 -.362E+00 0.535E+03   0.764E-11 0.388E+00 -.535E+03   0.000E+00 -.350E-01 -.111E+00
   -.393E+00 0.168E-13 0.535E+03   0.388E+00 0.142E-13 -.535E+03   0.675E-02 -.869E-23 -.910E-01
   0.385E-12 0.471E-12 0.156E+04   0.845E-12 -.846E-11 -.156E+04   0.000E+00 0.529E-22 0.341E+01
   -.914E-01 -.914E-01 0.156E+04   0.907E-01 0.907E-01 -.156E+04   0.106E-02 0.106E-02 0.341E+01
   0.417E-12 -.229E+02 -.149E+04   -.816E-11 0.226E+02 0.150E+04   -.132E-22 0.323E+00 -.496E+01
   -.722E+01 -.101E-12 -.152E+04   0.716E+01 0.924E-12 0.153E+04   0.533E-01 0.000E+00 -.495E+01
   0.344E-12 -.512E-12 -.474E+03   -.711E-14 0.738E-11 0.473E+03   0.165E-23 0.000E+00 0.281E+00
   -.250E+01 -.250E+01 -.473E+03   0.249E+01 0.249E+01 0.473E+03   0.633E-02 0.633E-02 0.326E+00
   0.336E-12 0.362E+00 0.535E+03   0.763E-11 -.388E+00 -.535E+03   0.364E-22 0.350E-01 -.111E+00
   -.362E+00 0.140E-11 0.535E+03   0.388E+00 -.769E-11 -.535E+03   -.350E-01 0.132E-22 -.111E+00
   0.349E-12 0.164E-11 0.156E+04   0.824E-12 -.838E-12 -.156E+04   0.000E+00 0.000E+00 0.340E+01
   -.914E-01 0.914E-01 0.156E+04   0.907E-01 -.907E-01 -.156E+04   0.106E-02 -.106E-02 0.341E+01
   0.426E-12 0.229E+02 -.149E+04   -.820E-11 -.226E+02 0.150E+04   -.248E-23 -.323E+00 -.496E+01
   -.229E+02 -.168E-11 -.149E+04   0.226E+02 0.819E-11 0.150E+04   0.323E+00 0.000E+00 -.496E+01
   0.313E-12 0.242E-12 -.473E+03   -.497E-13 0.426E-13 0.474E+03   -.496E-23 0.000E+00 -.196E+00
   -.250E+01 0.250E+01 -.473E+03   0.249E+01 -.249E+01 0.473E+03   0.633E-02 -.633E-02 0.326E+00
 -----------------------------------------------------------------------------------------------
   0.266E-10 0.271E-10 0.519E+02   0.226E-12 -.126E-12 0.364E-11   0.173E-17 -.252E-16 -.519E+02


 POSITION                                       TOTAL-FORCE (eV/Angst)
 -----------------------------------------------------------------------------------
      4.22049      4.22049     16.34814         0.000000      0.000000     -0.005369
      4.22049      4.22049     17.49496         0.000000      0.000000      0.000527
      0.00000      6.33074      7.50000         0.000000      0.000048      0.339049
      2.11025      0.00000      7.50000        -0.000048      0.000000      0.339049
      0.00000      0.00000      9.61025         0.000000      0.000000      0.070070
      2.11025      6.33074      9.61025         0.001540     -0.001540      0.072071
      0.00000      6.33023     11.73368         0.000000      0.000395     -0.002649
      2.11076      0.00000     11.73368        -0.000395      0.000000     -0.002649
      0.00000      0.00000     13.83822         0.000000      0.000000      0.000390
      2.10905      6.33193     13.83447        -0.000737      0.000737      0.002514
      0.00000      2.11025      7.50000        -0.000000     -0.000048      0.339049
      2.11025      4.22049      7.50000         0.000661      0.000000      0.339105
      0.00000      4.22049      9.61025         0.000000      0.000000      0.078580
      2.11025      2.11025      9.61025         0.001540      0.001540      0.072071
      0.00000      2.11076     11.73368         0.000000     -0.000395     -0.002649
      2.11344      4.22049     11.73659        -0.003469      0.000000      0.002920
      0.00000      4.22049     13.83544         0.000000      0.000000      0.000377
      2.10905      2.10905     13.83447        -0.000737     -0.000737      0.002514
      4.22049      6.33074      7.50000        -0.000000     -0.000661      0.339105
      6.33074      0.00000      7.50000         0.000048      0.000000      0.339049
      4.22049      0.00000      9.61025         0.000000      0.000000      0.078580
      6.33074      6.33074      9.61025        -0.001540     -0.001540      0.072071
      4.22049      6.32754     11.73659        -0.000000      0.003469      0.002920
      6.33023      0.00000     11.73368         0.000395      0.000000     -0.002649
      4.22049      0.00000     13.83544        -0.000000      0.000000      0.000377
      6.33193      6.33193     13.83447         0.000737      0.000737      0.002514
      4.22049      2.11025      7.50000         0.000000      0.000661      0.339105
      6.33074      4.22049      7.50000        -0.000661      0.000000      0.339105
      4.22049      4.22049      9.61025         0.000000      0.000000      0.084582
      6.33074      2.11025      9.61025        -0.001540      0.001540      0.072071
      4.22049      2.11344     11.73659        -0.000000     -0.003469      0.002920
      6.32754      4.22049     11.73659         0.003469      0.000000      0.002920
      4.22049      4.22049     13.87814         0.000000      0.000000      0.017758
      6.33193      2.10905     13.83447         0.000737     -0.000737      0.002514
      0.00000      6.33074      9.61025         0.000000      0.002023      0.077253
      2.11025      0.00000      9.61025        -0.002023      0.000000      0.077253
      0.00000      0.00000      7.50000         0.000000      0.000000     -0.501330
      2.11025      6.33074      7.50000        -0.000308      0.000308     -0.501093
      0.00000      6.33258     13.88587         0.000000     -0.002885     -0.000574
      2.10840      0.00000     13.88587         0.002885      0.000000     -0.000574
      0.00000      0.00000     11.72785         0.000000      0.000000      0.005876
      2.10979      6.33120     11.72890         0.003222     -0.003222     -0.000456
      0.00000      2.11025      9.61025        -0.000000     -0.002023      0.077253
      2.11025      4.22049      9.61025         0.008965      0.000000      0.086308
      0.00000      4.22049      7.50000        -0.000000      0.000000     -0.501184
      2.11025      2.11025      7.50000        -0.000308     -0.000308     -0.501093
      0.00000      2.10840     13.88587         0.000000      0.002885     -0.000574
      2.10031      4.22049     13.88381         0.005564      0.000000      0.002463
      0.00000      4.22049     11.72684         0.000000      0.000000      0.003840
      2.10979      2.10979     11.72890         0.003222      0.003222     -0.000456
      4.22049      6.33074      9.61025         0.000000     -0.008965      0.086308
      6.33074      0.00000      9.61025         0.002023      0.000000      0.077253
      4.22049      0.00000      7.50000        -0.000000      0.000000     -0.501184
      6.33074      6.33074      7.50000         0.000308      0.000308     -0.501093
      4.22049      6.34068     13.88381         0.000000     -0.005564      0.002463
      6.33258      0.00000     13.88587        -0.002885      0.000000     -0.000574
      4.22049      0.00000     11.72684         0.000000      0.000000      0.003840
      6.33120      6.33120     11.72890        -0.003222     -0.003222     -0.000456
      4.22049      2.11025      9.61025         0.000000      0.008965      0.086308
      6.33074      4.22049      9.61025        -0.008965      0.000000      0.086308
      4.22049      4.22049      7.50000         0.000000      0.000000     -0.501794
      6.33074      2.11025      7.50000         0.000308     -0.000308     -0.501093
      4.22049      2.10031     13.88381         0.000000      0.005564      0.002463
      6.34068      4.22049     13.88381        -0.005564      0.000000      0.002463
      4.22049      4.22049     11.73684         0.000000      0.000000     -0.001581
      6.33120      2.10979     11.72890        -0.003222      0.003222     -0.000456
 -----------------------------------------------------------------------------------
    total drift:                                0.000000      0.000000     -0.020292


--------------------------------------------------------------------------------------------------------



  FREE ENERGIE OF THE ION-ELECTRON SYSTEM (eV)
  ---------------------------------------------------
  free  energy   TOTEN  =      -386.05085731 eV

  energy  without entropy=     -386.05085731  energy(sigma->0) =     -386.05085731



--------------------------------------------------------------------------------------------------------


    POTLOK:  cpu time      1.0416: real time      1.0417


--------------------------------------------------------------------------------------------------------


     LOOP+:  cpu time     55.6175: real time     55.9494
    4ORBIT:  cpu time      0.0000: real time      0.0000

 total amount of memory used by VASP MPI-rank0    78528. kBytes
=======================================================================

   base      :      30000. kBytes
   nonl-proj :      29343. kBytes
   fftplans  :       3857. kBytes
   grid      :       5885. kBytes
   one-center:        137. kBytes
   wavefun   :       9306. kBytes

  
  
 General timing and accounting informations for this job:
 ========================================================
  
                  Total CPU time used (sec):       73.636
                            User time (sec):       71.530
                          System time (sec):        2.106
                         Elapsed time (sec):       78.274
  
                   Maximum memory used (kb):      177040.
                   Average memory used (kb):          N/A
  
                          Minor page faults:        31368
                          Major page faults:           53
                 Voluntary context switches:         7359
