 vasp.6.3.0 20Jan22 (build Apr  1 2022 16:44:48) complex                         
 executed on        HPECrayEX_GCC date 2022.09.26  16:39:48
 running 2048 mpi-ranks, with    1 threads/rank
 distrk:  each k-point on 2048 cores,    1 groups
 distr:  one band on NCORE=   8 cores,  256 groups


--------------------------------------------------------------------------------------------------------


 INCAR:
   SYSTEM = MgO-rocksalt
   ISMEAR = 0
   SIGMA = 0.05
   EDIFF = 1E-6
   ALGO = ALL
   ISTART = 0
   IBRION = 2
   NSW = 1000
   ISYM = 2
   ISIF = 2
   EDIFFG = -0.01
   DIPOL = 0.5 0.5 0.5
   IDIPOL = 3
   LDIPOL = .TRUE.
   LHFCALC = .TRUE.
   GGA = B5
   AEXX = 0.2
   AGGAX = 0.72
   AGGAC = 0.81
   ALDAC = 0.19
   IVDW = 1
   VDW_S6 = 1.05
   VDW_C6 = 0.63 0.70
   VDW_R0 = 1.243 1.342
   ENCUT = 600
   PREC = Accurate
   LASPH = .TRUE.
   LREAL = .FALSE.
   ISPIN = 1
   NELM = 200
   NELMIN = 8
   NCORE = 8
   KPAR = 1
   LWAVE = .FALSE.
   LCHARG = .FALSE.

 POTCAR:    PAW_PBE Mg_pv 13Apr2007               
 POTCAR:    PAW_PBE O 08Apr2002                   
 -----------------------------------------------------------------------------
|                                                                             |
|           W    W    AA    RRRRR   N    N  II  N    N   GGGG   !!!           |
|           W    W   A  A   R    R  NN   N  II  NN   N  G    G  !!!           |
|           W    W  A    A  R    R  N N  N  II  N N  N  G       !!!           |
|           W WW W  AAAAAA  RRRRR   N  N N  II  N  N N  G  GGG   !            |
|           WW  WW  A    A  R   R   N   NN  II  N   NN  G    G                |
|           W    W  A    A  R    R  N    N  II  N    N   GGGG   !!!           |
|                                                                             |
|     You have selected ISYM=2 for a HF type calculation. This will           |
|     symmetrize the charge density but not the exchange potential. I         |
|     suggest to use ISYM=3 instead. This uses symmetry to obtain the         |
|     orbitals at all k-points in the Brillouin zone, but does not apply      |
|     symmetry to the Hartree potential directly. The resultant charge        |
|     might have lower symmetry than the crystal but, at least, Hartree       |
|     and exchange are fully compatible.                                      |
|                                                                             |
 -----------------------------------------------------------------------------

 POTCAR:    PAW_PBE Mg_pv 13Apr2007               
   SHA256 =  f474ac0dd33840b9ae76c01d57fea79fdf77cdfbb07d5ade72c65f83c709b62b Mg_pv/POTCAR          
   COPYR  = (c) Copyright 13Apr2007 Georg Kresse                                                    
   COPYR  = This file is part of the software VASP. Any use, copying, and all other rights are regul
   COPYR  = If you do not have a valid VASP license, you may not use, copy or distribute this file. 
   VRHFIN =Mg: p6s2                                                                                 
   LEXCH  = PE                                                                                      
   EATOM  =  1056.7344 eV,   77.6678 Ry                                                             
                                                                                                    
   TITEL  = PAW_PBE Mg_pv 13Apr2007                                                                 
   LULTRA =        F    use ultrasoft PP ?                                                          
   IUNSCR =        1    unscreen: 0-lin 1-nonlin 2-no                                               
   RPACOR =    1.500    partial core radius                                                         
   POMASS =   24.305; ZVAL   =    8.000    mass and valenz                                          
   RCORE  =    2.000    outmost cutoff radius                                                       
   RWIGS  =    2.000; RWIGS  =    1.058    wigner-seitz radius (au A)                               
   ENMAX  =  403.929; ENMIN  =  302.947 eV                                                          
   RCLOC  =    1.506    cutoff for local pot                                                        
   LCOR   =        T    correct aug charges                                                         
   LPAW   =        T    paw PP                                                                      
   EAUG   =  758.780                                                                                
   DEXC   =    0.000                                                                                
   RMAX   =    2.045    core radius for proj-oper                                                   
   RAUG   =    1.300    factor for augmentation sphere                                              
   RDEP   =    2.025    radius for radial grids                                                     
   RDEPT  =    1.557    core radius for aug-charge                                                  
                                                                                                    
   Atomic configuration                                                                             
    5 entries                                                                                       
     n  l   j            E        occ.                                                              
     1  0  0.50     -1259.6230   2.0000                                                             
     2  0  0.50       -79.8442   2.0000                                                             
     2  1  1.50       -46.6121   6.0000                                                             
     3  0  0.50        -4.7055   2.0000                                                             
     3  2  1.50        -1.3606   0.0000                                                             
   Description                                                                                      
     l       E           TYP  RCUT    TYP  RCUT                                                     
     1    -46.6121073     23  1.600                                                                 
     1      2.7211652     23  1.600                                                                 
     0     -4.7054661     23  2.000                                                                 
     0     61.2262170     23  2.000                                                                 
     2     -1.3605826     23  2.000                                                                 
  local pseudopotential read in
  partial core-charges read in
  partial kinetic energy density read in
  atomic valenz-charges read in
  non local Contribution for L=           1  read in
    real space projection operators read in
  non local Contribution for L=           1  read in
    real space projection operators read in
  non local Contribution for L=           0  read in
    real space projection operators read in
  non local Contribution for L=           0  read in
    real space projection operators read in
  non local Contribution for L=           2  read in
    real space projection operators read in
    PAW grid and wavefunctions read in

   number of l-projection  operators is LMAX  =           5
   number of lm-projection operators is LMMAX =          13

 POTCAR:    PAW_PBE O 08Apr2002                   
   SHA256 =  818f92134a0a090dccd8ba1447fa70422a3b330e708bb4f08108d8ae51209ddf O/POTCAR              
   COPYR  = (c) Copyright 08Apr2002 Georg Kresse                                                    
   COPYR  = This file is part of the software VASP. Any use, copying, and all other rights are regul
   COPYR  = If you do not have a valid VASP license, you may not use, copy or distribute this file. 
   VRHFIN =O: s2p4                                                                                  
   LEXCH  = PE                                                                                      
   EATOM  =   432.3788 eV,   31.7789 Ry                                                             
                                                                                                    
   TITEL  = PAW_PBE O 08Apr2002                                                                     
   LULTRA =        F    use ultrasoft PP ?                                                          
   IUNSCR =        1    unscreen: 0-lin 1-nonlin 2-no                                               
   RPACOR =    1.200    partial core radius                                                         
   POMASS =   16.000; ZVAL   =    6.000    mass and valenz                                          
   RCORE  =    1.520    outmost cutoff radius                                                       
   RWIGS  =    1.550; RWIGS  =    0.820    wigner-seitz radius (au A)                               
   ENMAX  =  400.000; ENMIN  =  300.000 eV                                                          
   ICORE  =        2    local potential                                                             
   LCOR   =        T    correct aug charges                                                         
   LPAW   =        T    paw PP                                                                      
   EAUG   =  605.392                                                                                
   DEXC   =    0.000                                                                                
   RMAX   =    1.553    core radius for proj-oper                                                   
   RAUG   =    1.300    factor for augmentation sphere                                              
   RDEP   =    1.550    radius for radial grids                                                     
   RDEPT  =    1.329    core radius for aug-charge                                                  
                                                                                                    
   Atomic configuration                                                                             
    4 entries                                                                                       
     n  l   j            E        occ.                                                              
     1  0  0.50      -514.6923   2.0000                                                             
     2  0  0.50       -23.9615   2.0000                                                             
     2  1  0.50        -9.0305   4.0000                                                             
     3  2  1.50        -9.5241   0.0000                                                             
   Description                                                                                      
     l       E           TYP  RCUT    TYP  RCUT                                                     
     0    -23.9615318     23  1.200                                                                 
     0     -9.5240782     23  1.200                                                                 
     1     -9.0304911     23  1.520                                                                 
     1      8.1634956     23  1.520                                                                 
     2     -9.5240782      7  1.500                                                                 
  local pseudopotential read in
  partial core-charges read in
  partial kinetic energy density read in
  kinetic energy density of atom read in
  atomic valenz-charges read in
  non local Contribution for L=           0  read in
    real space projection operators read in
  non local Contribution for L=           0  read in
    real space projection operators read in
  non local Contribution for L=           1  read in
    real space projection operators read in
  non local Contribution for L=           1  read in
    real space projection operators read in
    PAW grid and wavefunctions read in

   number of l-projection  operators is LMAX  =           4
   number of lm-projection operators is LMMAX =           8

 -----------------------------------------------------------------------------
|                                                                             |
|               ----> ADVICE to this user running VASP <----                  |
|                                                                             |
|     You have a (more or less) 'large supercell' and for larger cells it     |
|     might be more efficient to use real-space projection operators.         |
|     Therefore, try LREAL= Auto in the INCAR file.                           |
|     Mind: For very accurate calculation, you might also keep the            |
|     reciprocal projection scheme (i.e. LREAL=.FALSE.).                      |
|                                                                             |
 -----------------------------------------------------------------------------

 -----------------------------------------------------------------------------
|                                                                             |
|               ----> ADVICE to this user running VASP <----                  |
|                                                                             |
|     You enforced a specific xc type in the INCAR file but a different       |
|     type was found in the POTCAR file.                                      |
|     I HOPE YOU KNOW WHAT YOU ARE DOING!                                     |
|                                                                             |
 -----------------------------------------------------------------------------

  PAW_PBE Mg_pv 13Apr2007               :
 energy of atom  1       EATOM=-1056.7344
 kinetic energy error for atom=    0.0221 (will be added to EATOM!!)
  PAW_PBE O 08Apr2002                   :
 energy of atom  2       EATOM= -432.3788
 kinetic energy error for atom=    0.0168 (will be added to EATOM!!)


 POSCAR: Mg  O
  positions in direct lattice
  velocities in cartesian coordinates
 exchange correlation table for  LEXCH =       12
   RHO(1)=    0.500       N(1)  =     2000
   RHO(2)=  100.500       N(2)  =     4000



--------------------------------------------------------------------------------------------------------


 ion  position               nearest neighbor table
   1  0.250  0.000  0.352-  35 2.10  36 2.10  43 2.10  52 2.10  33 2.10
   2  0.500  0.250  0.352-  35 2.10  36 2.10  44 2.10  51 2.10  34 2.10
   3  0.250  0.250  0.451-  39 2.10  34 2.10  33 2.10  41 2.10  50 2.10  35 2.10
   4  0.500  0.000  0.451-  40 2.10  34 2.10  33 2.10  42 2.10  49 2.10  36 2.10
   5  0.250  0.000  0.549-  39 2.10  40 2.10  47 2.10  56 2.10  33 2.10  37 2.12
   6  0.500  0.250  0.549-  39 2.10  40 2.10  48 2.10  55 2.10  34 2.10  38 2.12
   7  0.250  0.250  0.647-  39 2.09  38 2.10  37 2.10  45 2.10  54 2.10
   8  0.500  0.000  0.647-  40 2.09  38 2.10  37 2.10  46 2.10  53 2.10
   9  0.250  0.500  0.352-  35 2.10  43 2.10  44 2.10  60 2.10  41 2.10
  10  0.500  0.750  0.352-  36 2.10  43 2.10  44 2.10  59 2.10  42 2.10
  11  0.250  0.750  0.451-  47 2.10  41 2.10  42 2.10  33 2.10  58 2.10  43 2.10
  12  0.500  0.500  0.451-  48 2.10  41 2.10  42 2.10  34 2.10  57 2.10  44 2.10
  13  0.250  0.500  0.549-  39 2.10  47 2.10  48 2.10  64 2.10  41 2.10  45 2.12
  14  0.500  0.750  0.549-  40 2.10  47 2.10  48 2.10  63 2.10  42 2.10  46 2.12
  15  0.250  0.750  0.647-  47 2.09  45 2.10  46 2.10  37 2.10  62 2.10
  16  0.500  0.500  0.647-  48 2.09  45 2.10  46 2.10  38 2.10  61 2.10
  17  0.750  0.000  0.352-  36 2.10  51 2.10  52 2.10  59 2.10  49 2.10
  18  0.000  0.250  0.352-  35 2.10  51 2.10  52 2.10  60 2.10  50 2.10
  19  0.750  0.250  0.451-  55 2.10  49 2.10  50 2.10  34 2.10  57 2.10  51 2.10
  20  0.000  0.000  0.451-  56 2.10  49 2.10  50 2.10  33 2.10  58 2.10  52 2.10
  21  0.750  0.000  0.549-  40 2.10  55 2.10  56 2.10  63 2.10  49 2.10  53 2.12
  22  0.000  0.250  0.549-  39 2.10  55 2.10  56 2.10  64 2.10  50 2.10  54 2.12
  23  0.750  0.250  0.647-  55 2.09  53 2.10  54 2.10  38 2.10  61 2.10
  24  0.000  0.000  0.647-  56 2.09  53 2.10  54 2.10  37 2.10  62 2.10
  25  0.750  0.500  0.352-  44 2.10  51 2.10  59 2.10  60 2.10  57 2.10
  26  0.000  0.750  0.352-  43 2.10  52 2.10  59 2.10  60 2.10  58 2.10
  27  0.750  0.750  0.451-  63 2.10  49 2.10  57 2.10  58 2.10  42 2.10  59 2.10
  28  0.000  0.500  0.451-  64 2.10  50 2.10  57 2.10  58 2.10  41 2.10  60 2.10
  29  0.750  0.500  0.549-  48 2.10  55 2.10  63 2.10  64 2.10  57 2.10  61 2.12
  30  0.000  0.750  0.549-  47 2.10  56 2.10  63 2.10  64 2.10  58 2.10  62 2.12
  31  0.750  0.750  0.647-  63 2.09  53 2.10  61 2.10  62 2.10  46 2.10
  32  0.000  0.500  0.647-  64 2.09  54 2.10  61 2.10  62 2.10  45 2.10
  33  0.250  0.000  0.451-   3 2.10   4 2.10  11 2.10  20 2.10   1 2.10   5 2.10
  34  0.500  0.250  0.451-   3 2.10   4 2.10  12 2.10  19 2.10   2 2.10   6 2.10
  35  0.250  0.250  0.352-   1 2.10   2 2.10   9 2.10  18 2.10   3 2.10
  36  0.500  0.000  0.352-   1 2.10   2 2.10  10 2.10  17 2.10   4 2.10
  37  0.250  0.000  0.649-   7 2.10   8 2.10  15 2.10  24 2.10   5 2.12
  38  0.500  0.250  0.649-   7 2.10   8 2.10  16 2.10  23 2.10   6 2.12
  39  0.250  0.250  0.549-   7 2.09   3 2.10   6 2.10   5 2.10  13 2.10  22 2.10
  40  0.500  0.000  0.549-   8 2.09   4 2.10   6 2.10   5 2.10  14 2.10  21 2.10
  41  0.250  0.500  0.451-   3 2.10  11 2.10  12 2.10  28 2.10   9 2.10  13 2.10
  42  0.500  0.750  0.451-   4 2.10  11 2.10  12 2.10  27 2.10  10 2.10  14 2.10
  43  0.250  0.750  0.352-   1 2.10   9 2.10  10 2.10  26 2.10  11 2.10
  44  0.500  0.500  0.352-   2 2.10   9 2.10  10 2.10  25 2.10  12 2.10
  45  0.250  0.500  0.649-   7 2.10  15 2.10  16 2.10  32 2.10  13 2.12
  46  0.500  0.750  0.649-   8 2.10  15 2.10  16 2.10  31 2.10  14 2.12
  47  0.250  0.750  0.549-  15 2.09  11 2.10  13 2.10  14 2.10   5 2.10  30 2.10
  48  0.500  0.500  0.549-  16 2.09  12 2.10  13 2.10  14 2.10   6 2.10  29 2.10
  49  0.750  0.000  0.451-   4 2.10  19 2.10  20 2.10  27 2.10  17 2.10  21 2.10
  50  0.000  0.250  0.451-   3 2.10  19 2.10  20 2.10  28 2.10  18 2.10  22 2.10
  51  0.750  0.250  0.352-   2 2.10  17 2.10  18 2.10  25 2.10  19 2.10
  52  0.000  0.000  0.352-   1 2.10  17 2.10  18 2.10  26 2.10  20 2.10
  53  0.750  0.000  0.649-   8 2.10  23 2.10  24 2.10  31 2.10  21 2.12
  54  0.000  0.250  0.649-   7 2.10  23 2.10  24 2.10  32 2.10  22 2.12
  55  0.750  0.250  0.549-  23 2.09  19 2.10  21 2.10  22 2.10   6 2.10  29 2.10
  56  0.000  0.000  0.549-  24 2.09  20 2.10  21 2.10  22 2.10   5 2.10  30 2.10
  57  0.750  0.500  0.451-  12 2.10  19 2.10  27 2.10  28 2.10  25 2.10  29 2.10
  58  0.000  0.750  0.451-  11 2.10  20 2.10  27 2.10  28 2.10  26 2.10  30 2.10
  59  0.750  0.750  0.352-  10 2.10  17 2.10  25 2.10  26 2.10  27 2.10
  60  0.000  0.500  0.352-   9 2.10  18 2.10  25 2.10  26 2.10  28 2.10
  61  0.750  0.500  0.649-  16 2.10  23 2.10  31 2.10  32 2.10  29 2.12
  62  0.000  0.750  0.649-  15 2.10  24 2.10  31 2.10  32 2.10  30 2.12
  63  0.750  0.750  0.549-  31 2.09  27 2.10  14 2.10  29 2.10  30 2.10  21 2.10
  64  0.000  0.500  0.549-  32 2.09  28 2.10  13 2.10  29 2.10  30 2.10  22 2.10

  LATTYP: Found a simple tetragonal cell.
 ALAT       =     8.4048619950
 C/A-ratio  =     2.5346812963
  
  Lattice vectors:
  
 A1 = (   8.4048619950,   0.0000000000,   0.0000000000)
 A2 = (   0.0000000000,   8.4048619950,   0.0000000000)
 A3 = (   0.0000000000,   0.0000000000,  21.3036464962)


Analysis of symmetry for initial positions (statically):
=====================================================================
 Subroutine PRICEL returns following result:
 
  LATTYP: Found a simple tetragonal cell.
 ALAT       =     2.9715674558
 C/A-ratio  =     7.1691613309
  
  Lattice vectors:
  
 A1 = (   2.1012154987,  -2.1012154987,   0.0000000000)
 A2 = (   2.1012154987,   2.1012154987,   0.0000000000)
 A3 = (   0.0000000000,   0.0000000000,  21.3036464962)
 
   8 primitive cells build up your supercell.
 

 Routine SETGRP: Setting up the symmetry group for a 
 simple tetragonal supercell.


 Subroutine GETGRP returns: Found  8 space group operations
 (whereof  8 operations were pure point group operations)
 out of a pool of 16 trial point group operations.


The static configuration has the point symmetry C_4v.


Analysis of symmetry for dynamics (positions and initial velocities):
=====================================================================
 Subroutine PRICEL returns following result:
 
  LATTYP: Found a simple tetragonal cell.
 ALAT       =     2.9715674558
 C/A-ratio  =     7.1691613309
  
  Lattice vectors:
  
 A1 = (   2.1012154987,  -2.1012154987,   0.0000000000)
 A2 = (   2.1012154987,   2.1012154987,   0.0000000000)
 A3 = (   0.0000000000,   0.0000000000,  21.3036464962)
 
   8 primitive cells build up your supercell.
 

 Routine SETGRP: Setting up the symmetry group for a 
 simple tetragonal supercell.


 Subroutine GETGRP returns: Found  8 space group operations
 (whereof  8 operations were pure point group operations)
 out of a pool of 16 trial point group operations.


The dynamic configuration has the point symmetry C_4v.


Analysis of constrained symmetry for selective dynamics:
=====================================================================
 Subroutine PRICEL returns following result:
 
  LATTYP: Found a simple tetragonal cell.
 ALAT       =     2.9715674558
 C/A-ratio  =     7.1691613309
  
  Lattice vectors:
  
 A1 = (   2.1012154987,  -2.1012154987,   0.0000000000)
 A2 = (   2.1012154987,   2.1012154987,   0.0000000000)
 A3 = (   0.0000000000,   0.0000000000,  21.3036464962)
 
   8 primitive cells build up your supercell.
 

 Routine SETGRP: Setting up the symmetry group for a 
 simple tetragonal supercell.


 Subroutine GETGRP returns: Found  8 space group operations
 (whereof  8 operations were pure point group operations)
 out of a pool of 16 trial point group operations.


The constrained configuration has the point symmetry C_4v.


 Subroutine INISYM returns: Found  8 space group operations
 (whereof  8 operations are pure point group operations),
 and found     8 'primitive' translations


----------------------------------------------------------------------------------------

                                     Primitive cell                                     

  volume of cell :     188.1157

  direct lattice vectors                    reciprocal lattice vectors
     2.101215499 -2.101215499  0.000000000     0.237957506 -0.237957506  0.000000000
     2.101215499  2.101215499  0.000000000     0.237957506  0.237957506 -0.000000000
     0.000000000  0.000000000 21.303646496    -0.000000000  0.000000000  0.046940321

  length of vectors
     2.971567456  2.971567456 21.303646496     0.336522732  0.336522732  0.046940321

  position of ions in fractional coordinates (direct lattice)
     0.500000000  0.500000000  0.352052406
     0.000000000  1.000000000  0.450684135
     0.500000000  0.500000000  0.549481360
     0.000000000  1.000000000  0.647101756
     0.500000000  0.500000000  0.450684135
     0.000000000  1.000000000  0.352052406
     0.500000000  0.500000000  0.649149576
     0.000000000  1.000000000  0.549102701

  ion indices of the primitive-cell ions
   primitive index   ion index
                 1           1
                 2           3
                 3           5
                 4           7
                 5          33
                 6          35
                 7          37
                 8          39

----------------------------------------------------------------------------------------



 KPOINTS: pymatgen v2020.8.13 with grid density = 

Automatic generation of k-mesh.
 Grid dimensions read from file:
 generate k-points for:    2    2    1

 Generating k-lattice:

  Cartesian coordinates                     Fractional coordinates (reciprocal lattice)
     0.059489377  0.000000000  0.000000000     0.500000000  0.000000000  0.000000000
     0.000000000  0.059489377  0.000000000     0.000000000  0.500000000  0.000000000
     0.000000000  0.000000000  0.046940321     0.000000000  0.000000000  1.000000000

  Length of vectors
     0.059489377  0.059489377  0.046940321

  Shift w.r.t. Gamma in fractional coordinates (k-lattice)
     0.000000000  0.000000000  0.000000000

 
 Subroutine IBZKPT returns following result:
 ===========================================
 
 Found      3 irreducible k-points:
 
 Following reciprocal coordinates:
            Coordinates               Weight
  0.000000  0.000000  0.000000      1.000000
  0.500000  0.000000  0.000000      2.000000
  0.500000  0.500000  0.000000      1.000000
 
 Following cartesian coordinates:
            Coordinates               Weight
  0.000000  0.000000  0.000000      1.000000
  0.059489  0.000000  0.000000      2.000000
  0.059489  0.059489  0.000000      1.000000
 
 
 Subroutine IBZKPT_HF returns following result:
 ==============================================
 
 Found      4 k-points in 1st BZ
 the following      4 k-points will be used (e.g. in the exchange kernel)
 Following reciprocal coordinates:   # in IRBZ
  0.000000  0.000000  0.000000    0.25000000   1 t-inv F
  0.500000  0.000000  0.000000    0.25000000   2 t-inv F
  0.500000  0.500000  0.000000    0.25000000   3 t-inv F
 -0.000000  0.500000  0.000000    0.25000000   2 t-inv F


--------------------------------------------------------------------------------------------------------




 Dimension of arrays:
   k-points           NKPTS =      3   k-points in BZ     NKDIM =      4   number of bands    NBANDS=    512
   number of dos      NEDOS =    301   number of ions     NIONS =     64
   non local maximal  LDIM  =      5   non local SUM 2l+1 LMDIM =     13
   total plane-waves  NPLWV = 882000
   max r-space proj   IRMAX =      1   max aug-charges    IRDMAX=  11749
   dimension x,y,z NGX =    70 NGY =   70 NGZ =  180
   dimension x,y,z NGXF=   140 NGYF=  140 NGZF=  360
   support grid    NGXF=   140 NGYF=  140 NGZF=  360
   ions per type =              32  32
   NGX,Y,Z   is equivalent  to a cutoff of  13.85, 13.85, 14.05 a.u.
   NGXF,Y,Z  is equivalent  to a cutoff of  27.69, 27.69, 28.09 a.u.

 SYSTEM =  MgO-rocksalt                            
 POSCAR =  Mg  O                                   

 Startparameter for this run:
   NWRITE =      2    write-flag & timer
   PREC   = accura    normal or accurate (medium, high low for compatibility)
   ISTART =      0    job   : 0-new  1-cont  2-samecut
   ICHARG =      2    charge: 1-file 2-atom 10-const
   ISPIN  =      1    spin polarized calculation?
   LNONCOLLINEAR =      F non collinear calculations
   LSORBIT =      F    spin-orbit coupling
   INIWAV =      1    electr: 0-lowe 1-rand  2-diag
   LASPH  =      T    aspherical Exc in radial PAW
 Electronic Relaxation 1
   ENCUT  =  600.0 eV  44.10 Ry    6.64 a.u.  16.79 16.79 42.55*2*pi/ulx,y,z
   ENINI  =  600.0     initial cutoff
   ENAUG  =  758.8 eV  augmentation charge cutoff
   NELM   =    200;   NELMIN=  8; NELMDL= -5     # of ELM steps 
   EDIFF  = 0.1E-05   stopping-criterion for ELM
   LREAL  =      F    real-space projection
   NLSPLINE    = F    spline interpolate recip. space projectors
   LCOMPAT=      F    compatible to vasp.4.4
   GGA_COMPAT  = T    GGA compatible to vasp.4.4-vasp.4.6
   LMAXPAW     = -100 max onsite density
   LMAXMIX     =    2 max onsite mixed and CHGCAR
   VOSKOWN=      0    Vosko Wilk Nusair interpolation
   ROPT   =    0.00000   0.00000
 Ionic relaxation
   EDIFFG = -.1E-01   stopping-criterion for IOM
   NSW    =   1000    number of steps for IOM
   NBLOCK =      1;   KBLOCK =   1000    inner block; outer block 
   IBRION =      2    ionic relax: 0-MD 1-quasi-New 2-CG
   NFREE  =      1    steps in history (QN), initial steepest desc. (CG)
   ISIF   =      2    stress and relaxation
   IWAVPR =     11    prediction:  0-non 1-charg 2-wave 3-comb
   ISYM   =      2    0-nonsym 1-usesym 2-fastsym
   LCORR  =      T    Harris-Foulkes like correction to forces

   POTIM  = 0.5000    time-step for ionic-motion
   TEIN   =    0.0    initial temperature
   TEBEG  =    0.0;   TEEND  =   0.0 temperature during run
   SMASS  =  -3.00    Nose mass-parameter (am)
   estimated Nose-frequenzy (Omega)   =  0.10E-29 period in steps = 0.13E+47 mass=  -0.161E-26a.u.
   SCALEE = 1.0000    scale energy and forces
   NPACO  =    256;   APACO  = 10.0  distance and # of slots for P.C.
   PSTRESS=    0.0 pullay stress

  Mass of Ions in am
   POMASS =  24.30 16.00
  Ionic Valenz
   ZVAL   =   8.00  6.00
  Atomic Wigner-Seitz radii
   RWIGS  =  -1.00 -1.00
  virtual crystal weights 
   VCA    =   1.00  1.00
   NELECT =     448.0000    total number of electrons
   NUPDOWN=      -1.0000    fix difference up-down

 DOS related values:
   EMIN   =  10.00;   EMAX   =-10.00  energy-range for DOS
   EFERMI =   0.00
   ISMEAR =     0;   SIGMA  =   0.05  broadening in eV -4-tet -1-fermi 0-gaus

 Electronic relaxation 2 (details)
   IALGO  =     58    algorithm
   LDIAG  =      T    sub-space diagonalisation (order eigenvalues)
   LSUBROT=      F    optimize rotation matrix (better conditioning)
   TURBO    =      0    0=normal 1=particle mesh
   IRESTART =      0    0=no restart 2=restart with 2 vectors
   NREBOOT  =      0    no. of reboots
   NMIN     =      0    reboot dimension
   EREF     =   0.00    reference energy to select bands
   IMIX   =      4    mixing-type and parameters
     AMIX     =   0.40;   BMIX     =  1.00
     AMIX_MAG =   1.60;   BMIX_MAG =  1.00
     AMIN     =   0.10
     WC   =   100.;   INIMIX=   1;  MIXPRE=   1;  MAXMIX= -45

 Intra band minimization:
   WEIMIN = 0.0010     energy-eigenvalue tresh-hold
   EBREAK =  0.49E-09  absolut break condition
   DEPER  =   0.30     relativ break condition  

   TIME   =   0.40     timestep for ELM

  volume/ion in A,a.u.               =      23.51       158.68
  Fermi-wavevector in a.u.,A,eV,Ry     =   1.093106  2.065672 16.257353  1.194882
  Thomas-Fermi vector in A             =   2.229385

 Write flags
   LWAVE        =      F    write WAVECAR
   LDOWNSAMPLE  =      F    k-point downsampling of WAVECAR
   LCHARG       =      F    write CHGCAR
   LVTOT        =      F    write LOCPOT, total local potential
   LVHAR        =      F    write LOCPOT, Hartree potential only
   LELF         =      F    write electronic localiz. function (ELF)
   LORBIT       =      0    0 simple, 1 ext, 2 COOP (PROOUT), +10 PAW based schemes


 Dipole corrections
   LMONO  =      F    monopole corrections only (constant potential shift)
   LDIPOL =      T    correct potential (dipole corrections)
   IDIPOL =      3    1-x, 2-y, 3-z, 4-all directions 
   EPSILON=  1.0000000 bulk dielectric constant

 Exchange correlation treatment:
   GGA     =    B5    GGA type
   LEXCH   =    12    internal setting for exchange type
   LIBXC   =     F    Libxc                    
   VOSKOWN =     0    Vosko Wilk Nusair interpolation
   EXXOEP  =     0    0=HF, 1=EXX-LHF (local Hartree Fock) 2=EXX OEP
   LHFCALC =     T    Hartree Fock is set to
   LSYMGRAD=     F    symmetrize gradient (conserves proper symmetry)
   PRECFOCK=normal    Normal, Fast or Accurate (Low or Medium for compatibility)
   LRHFCALC=     F    long range Hartree Fock
   LRSCOR  =     F    long range correlation only (use DFT for short range part)
   LTHOMAS =     F    Thomas Fermi screening in HF
   LMODELHF=     F    short range full HF, long range fraction AEXX
   LFOCKACE=     T    use Adeptively-Compressed-Exchange operator
   ENCUT4O =  -1.0   cutoff for four orbital integrals eV
   LMAXFOCK=     4    L truncation for augmentation on plane wave grid
   LMAXFOCKAE=  -1    L truncation for all-electron charge restoration on plane wave grid
   NMAXFOCKAE=   1    number of basis functions for all-electron charge restoration
   LFOCKAEDFT=     F  apply the AE augmentation even for DFT
   NKREDX  =     1    reduce k-point grid by
   NKREDY  =     1    reduce k-point grid by
   NKREDZ  =     1    reduce k-point grid by
   SHIFTRED=     F    shift reduced grid of Gamma
   HFKIDENT=     F    idential grid for each k-point
   ODDONLY =     F    use only odd q-grid points
   EVENONLY=     F    use only even q-grid points
   HFALPHA =   -1.0000 decay constant for conv. correction
   MCALPHA =    0.0000 extent of test-charge in conv. correction in multipole expansion
   AEXX    =    0.2000 exact exchange contribution
   HFSCREEN=    0.0000 screening length (either q_TF or 0.3 A-1)
   HFSCREENC=   0.0000 screening length for correlation (either q_TF or 0.3 A-1)
   HFRCUT  =    0.0000 spherical cutoff for potential kernel
   ALDAX   =    0.8000 LDA exchange part
   AGGAX   =    0.7200 GGA exchange part
   ALDAC   =    0.1900 LDA correlation
   AGGAC   =    0.8100 GGA correlation
   ENCUTFOCK=  -1.0 apply spherical cutoff to Coloumb kernel
   NBANDSGWLOW=     1    first orbital included in HF term
   NBLOCK_FOCK=    64    blocking factor in FOCK_ACC

 Linear response parameters
   LEPSILON=     F    determine dielectric tensor
   LRPA    =     F    only Hartree local field effects (RPA)
   LNABLA  =     F    use nabla operator in PAW spheres
   LVEL    =     F    velocity operator in full k-point grid
   CSHIFT  =0.1000    complex shift for real part using Kramers Kronig
   OMEGAMAX=  -1.0    maximum frequency
   DEG_THRESHOLD= 0.2000000E-02 threshold for treating states as degnerate
   RTIME   =   -0.100 relaxation time in fs
  (WPLASMAI=    0.000 imaginary part of plasma frequency in eV, 0.658/RTIME)
   DFIELD  = 0.0000000 0.0000000 0.0000000 field for delta impulse in time

  Optional k-point grid parameters
   LKPOINTS_OPT  =     F    use optional k-point grid
   KPOINTS_OPT_MODE=     1    mode for optional k-point grid

 Orbital magnetization related:
   ORBITALMAG=     F  switch on orbital magnetization
   LCHIMAG   =     F  perturbation theory with respect to B field
   DQ        =  0.001000  dq finite difference perturbation B field
   LLRAUG    =     F  two centre corrections for induced B field



--------------------------------------------------------------------------------------------------------


 conjugate gradient relaxation of ions
   using selective dynamics as specified on POSCAR
 charge density and potential will be updated during run
 non-spin polarized calculation
 Conjugate gradient for all bands (Freysoldt, et al. PRB 79, 241103 (2009))
 preconditioned conjugated gradient                                        
 perform sub-space diagonalisation
    before iterative eigenvector-optimisation
 modified Broyden-mixing scheme, WC =      100.0
 initial mixing is a Kerker type mixing with AMIX =  0.4000 and BMIX =      1.0000
 Hartree-type preconditioning will be used
 using additional bands          288
 reciprocal scheme for non local part
 use partial core corrections
 no Harris-corrections to forces 
 use gradient corrections 
 use of overlap-Matrix (Vanderbilt PP)
 Gauss-broadening in eV      SIGMA  =   0.05


--------------------------------------------------------------------------------------------------------


  energy-cutoff  :      600.00
  volume of cell :     1504.93
      direct lattice vectors                 reciprocal lattice vectors
     8.404861995  0.000000000  0.000000000     0.118978753  0.000000000  0.000000000
     0.000000000  8.404861995  0.000000000     0.000000000  0.118978753  0.000000000
     0.000000000  0.000000000 21.303646496     0.000000000  0.000000000  0.046940321

  length of vectors
     8.404861995  8.404861995 21.303646496     0.118978753  0.118978753  0.046940321



 k-points in units of 2pi/SCALE and weight: pymatgen v2020.8.13 with grid density = 
   0.00000000  0.00000000  0.00000000       0.250
   0.05948938  0.00000000  0.00000000       0.500
   0.05948938  0.05948938  0.00000000       0.250

 k-points in reciprocal lattice and weights: pymatgen v2020.8.13 with grid density = 
   0.00000000  0.00000000  0.00000000       0.250
   0.50000000  0.00000000  0.00000000       0.500
   0.50000000  0.50000000  0.00000000       0.250

 position of ions in fractional coordinates (direct lattice) 
   0.25000000  0.00000000  0.35205241
   0.50000000  0.25000000  0.35205241
   0.25000000  0.25000000  0.45068414
   0.50000000  0.00000000  0.45068414
   0.25000000  0.00000000  0.54948136
   0.50000000  0.25000000  0.54948136
   0.25000000  0.25000000  0.64710176
   0.50000000  0.00000000  0.64710176
   0.25000000  0.50000000  0.35205241
   0.50000000  0.75000000  0.35205241
   0.25000000  0.75000000  0.45068414
   0.50000000  0.50000000  0.45068414
   0.25000000  0.50000000  0.54948136
   0.50000000  0.75000000  0.54948136
   0.25000000  0.75000000  0.64710176
   0.50000000  0.50000000  0.64710176
   0.75000000  0.00000000  0.35205241
   0.00000000  0.25000000  0.35205241
   0.75000000  0.25000000  0.45068414
   0.00000000  0.00000000  0.45068414
   0.75000000  0.00000000  0.54948136
   0.00000000  0.25000000  0.54948136
   0.75000000  0.25000000  0.64710176
   0.00000000  0.00000000  0.64710176
   0.75000000  0.50000000  0.35205241
   0.00000000  0.75000000  0.35205241
   0.75000000  0.75000000  0.45068414
   0.00000000  0.50000000  0.45068414
   0.75000000  0.50000000  0.54948136
   0.00000000  0.75000000  0.54948136
   0.75000000  0.75000000  0.64710176
   0.00000000  0.50000000  0.64710176
   0.25000000  0.00000000  0.45068414
   0.50000000  0.25000000  0.45068414
   0.25000000  0.25000000  0.35205241
   0.50000000  0.00000000  0.35205241
   0.25000000  0.00000000  0.64914958
   0.50000000  0.25000000  0.64914958
   0.25000000  0.25000000  0.54910270
   0.50000000  0.00000000  0.54910270
   0.25000000  0.50000000  0.45068414
   0.50000000  0.75000000  0.45068414
   0.25000000  0.75000000  0.35205241
   0.50000000  0.50000000  0.35205241
   0.25000000  0.50000000  0.64914958
   0.50000000  0.75000000  0.64914958
   0.25000000  0.75000000  0.54910270
   0.50000000  0.50000000  0.54910270
   0.75000000  0.00000000  0.45068414
   0.00000000  0.25000000  0.45068414
   0.75000000  0.25000000  0.35205241
   0.00000000  0.00000000  0.35205241
   0.75000000  0.00000000  0.64914958
   0.00000000  0.25000000  0.64914958
   0.75000000  0.25000000  0.54910270
   0.00000000  0.00000000  0.54910270
   0.75000000  0.50000000  0.45068414
   0.00000000  0.75000000  0.45068414
   0.75000000  0.75000000  0.35205241
   0.00000000  0.50000000  0.35205241
   0.75000000  0.50000000  0.64914958
   0.00000000  0.75000000  0.64914958
   0.75000000  0.75000000  0.54910270
   0.00000000  0.50000000  0.54910270

 position of ions in cartesian coordinates  (Angst):
   2.10121550  0.00000000  7.50000000
   4.20243100  2.10121550  7.50000000
   2.10121550  2.10121550  9.60121550
   4.20243100  0.00000000  9.60121550
   2.10121550  0.00000000 11.70595666
   4.20243100  2.10121550 11.70595666
   2.10121550  2.10121550 13.78562707
   4.20243100  0.00000000 13.78562707
   2.10121550  4.20243100  7.50000000
   4.20243100  6.30364650  7.50000000
   2.10121550  6.30364650  9.60121550
   4.20243100  4.20243100  9.60121550
   2.10121550  4.20243100 11.70595666
   4.20243100  6.30364650 11.70595666
   2.10121550  6.30364650 13.78562707
   4.20243100  4.20243100 13.78562707
   6.30364650  0.00000000  7.50000000
   0.00000000  2.10121550  7.50000000
   6.30364650  2.10121550  9.60121550
   0.00000000  0.00000000  9.60121550
   6.30364650  0.00000000 11.70595666
   0.00000000  2.10121550 11.70595666
   6.30364650  2.10121550 13.78562707
   0.00000000  0.00000000 13.78562707
   6.30364650  4.20243100  7.50000000
   0.00000000  6.30364650  7.50000000
   6.30364650  6.30364650  9.60121550
   0.00000000  4.20243100  9.60121550
   6.30364650  4.20243100 11.70595666
   0.00000000  6.30364650 11.70595666
   6.30364650  6.30364650 13.78562707
   0.00000000  4.20243100 13.78562707
   2.10121550  0.00000000  9.60121550
   4.20243100  2.10121550  9.60121550
   2.10121550  2.10121550  7.50000000
   4.20243100  0.00000000  7.50000000
   2.10121550  0.00000000 13.82925309
   4.20243100  2.10121550 13.82925309
   2.10121550  2.10121550 11.69788983
   4.20243100  0.00000000 11.69788983
   2.10121550  4.20243100  9.60121550
   4.20243100  6.30364650  9.60121550
   2.10121550  6.30364650  7.50000000
   4.20243100  4.20243100  7.50000000
   2.10121550  4.20243100 13.82925309
   4.20243100  6.30364650 13.82925309
   2.10121550  6.30364650 11.69788983
   4.20243100  4.20243100 11.69788983
   6.30364650  0.00000000  9.60121550
   0.00000000  2.10121550  9.60121550
   6.30364650  2.10121550  7.50000000
   0.00000000  0.00000000  7.50000000
   6.30364650  0.00000000 13.82925309
   0.00000000  2.10121550 13.82925309
   6.30364650  2.10121550 11.69788983
   0.00000000  0.00000000 11.69788983
   6.30364650  4.20243100  9.60121550
   0.00000000  6.30364650  9.60121550
   6.30364650  6.30364650  7.50000000
   0.00000000  4.20243100  7.50000000
   6.30364650  4.20243100 13.82925309
   0.00000000  6.30364650 13.82925309
   6.30364650  6.30364650 11.69788983
   0.00000000  4.20243100 11.69788983



--------------------------------------------------------------------------------------------------------


 k-point   1 :   0.0000 0.0000 0.0000  plane waves:   50225
 k-point   2 :   0.5000 0.0000 0.0000  plane waves:   50238
 k-point   3 :   0.5000 0.5000 0.0000  plane waves:   50216

 maximum and minimum number of plane-waves per node :      6318     6238

 maximum number of plane-waves:     50238
 maximum index in each direction: 
   IXMAX=   16   IYMAX=   16   IZMAX=   42
   IXMIN=  -17   IYMIN=  -17   IZMIN=  -42


 parallel 3D FFT for wavefunctions:
    minimum data exchange during FFTs selected (reduces bandwidth)
 parallel 3D FFT for charge:
    minimum data exchange during FFTs selected (reduces bandwidth)


 FFT grid for exact exchange (Hartree Fock) 
  NGX = 54; NGY = 54; NGZ =140


 Radii for the augmentation spheres in the non-local exchange
 for species   1 augmentation radius   1.037 (default was   0.829)
       energy cutoff for augmentation   2400.0
 for species   2 augmentation radius   0.902 (default was   0.722)
       energy cutoff for augmentation   2400.0

 real space projection operators:
  total allocation   :       9753.84 KBytes
  max/ min on nodes  :       1356.30        902.19

 Maximum index for augmentation-charges in exchange          176
  SETUP_FOCK is finished

 total amount of memory used by VASP MPI-rank0    61278. kBytes
=======================================================================

   base      :      30000. kBytes
   nonl-proj :      10547. kBytes
   fftplans  :       8340. kBytes
   grid      :       7379. kBytes
   one-center:         64. kBytes
   HF        :         67. kBytes
   nonlr-proj:       2967. kBytes
   wavefun   :       1914. kBytes

     INWAV:  cpu time      0.0001: real time      0.0002
 Broyden mixing: mesh for mixing (old mesh)
   NGX = 33   NGY = 33   NGZ = 85
  (NGX  =140   NGY  =140   NGZ  =360)
  gives a total of  92565 points

 initial charge density was supplied:
 charge density of overlapping atoms calculated
 number of electron     448.0000000 magnetization 
 keeping initial charge density in first step


--------------------------------------------------------------------------------------------------------


 Maximum index for augmentation-charges          606 (set IRDMAX)


--------------------------------------------------------------------------------------------------------


    FEWALD:  cpu time      0.0017: real time      0.0017


--------------------------------------- Iteration      1(   1)  ---------------------------------------


    POTLOK:  cpu time      0.3132: real time      0.3138
    SETDIJ:  cpu time      0.1201: real time      0.1201
    TRIAL :  cpu time    123.8026: real time    123.8989
    CORREC:  cpu time      0.0012: real time      0.0013
    --------------------------------------------
      LOOP:  cpu time    124.2408: real time    124.3400

 eigenvalue-minimisations  :  3072
 total energy-change (2. order) : 0.6064427E+03  (-0.3114543E+05)
 number of electron     448.0000000 magnetization 
 augmentation part      448.0000000 magnetization 

 DIPCOR: dipole corrections for dipol
 direction  3 min pos     1,
 dipolmoment           0.000000      0.000000      0.000000 electrons x Angstroem
 Tr[quadrupol]     -5913.442593

 energy correction for charged system         0.000000 eV
 dipol+quadrupol energy correction           -0.000000 eV
 added-field ion interaction         -0.000000 eV  (added to PSCEN)


 Free energy of the ion-electron system (eV)
  ---------------------------------------------------
  alpha Z        PSCENC =       883.92154302
  Ewald energy   TEWEN  =    143180.32833697
  -Hartree energ DENC   =   -178678.26465747
  -exchange      EXHF   =         0.00000000
  -V(xc)+E(xc)   XCENC  =      1751.54306494
  PAW double counting   =     31854.93933934   -38018.55599435
  entropy T*S    EENTRO =        -0.02252557
  eigenvalues    EBANDS =     -7986.99581628
  atomic energy  EATOM  =     47619.54939170
  ---------------------------------------------------
  free energy    TOTEN  =       606.44268230 eV

  energy without entropy =      606.46520787  energy(sigma->0) =      606.45394509
  exchange ACFDT corr.  =         0.00000000  see jH, gK, PRB 81, 115126


--------------------------------------------------------------------------------------------------------




--------------------------------------- Iteration      1(   2)  ---------------------------------------


    TRIAL :  cpu time     27.8573: real time     27.8630
    CORREC:  cpu time      0.0004: real time      0.0004
    --------------------------------------------
      LOOP:  cpu time     27.8644: real time     27.8823

 eigenvalue-minimisations  :  3840
 total energy-change (2. order) :-0.3674987E+04  (-0.3549372E+04)
 number of electron     448.0000000 magnetization 
 augmentation part      448.0000000 magnetization 

 DIPCOR: dipole corrections for dipol
 direction  3 min pos     1,
 dipolmoment           0.000000      0.000000      0.000000 electrons x Angstroem
 Tr[quadrupol]     -5913.442593

 energy correction for charged system         0.000000 eV
 dipol+quadrupol energy correction           -0.000000 eV
 added-field ion interaction         -0.000000 eV  (added to PSCEN)


 Free energy of the ion-electron system (eV)
  ---------------------------------------------------
  alpha Z        PSCENC =       883.92154302
  Ewald energy   TEWEN  =    143180.32833697
  -Hartree energ DENC   =   -178678.26465747
  -exchange      EXHF   =         0.00000000
  -V(xc)+E(xc)   XCENC  =      1751.54306494
  PAW double counting   =     31854.93933934   -38018.55599435
  entropy T*S    EENTRO =        -0.00000000
  eigenvalues    EBANDS =    -11662.00502233
  atomic energy  EATOM  =     47619.54939170
  ---------------------------------------------------
  free energy    TOTEN  =     -3068.54399818 eV

  energy without entropy =    -3068.54399818  energy(sigma->0) =    -3068.54399818
  exchange ACFDT corr.  =         0.00000000  see jH, gK, PRB 81, 115126


--------------------------------------------------------------------------------------------------------




--------------------------------------- Iteration      1(   3)  ---------------------------------------


    TRIAL :  cpu time     44.1175: real time     44.1285
    CORREC:  cpu time      0.0003: real time      0.0003
    --------------------------------------------
      LOOP:  cpu time     44.1256: real time     44.1433

 eigenvalue-minimisations  :  4352
 total energy-change (2. order) :-0.1497563E+03  (-0.1494800E+03)
 number of electron     448.0000000 magnetization 
 augmentation part      448.0000000 magnetization 

 DIPCOR: dipole corrections for dipol
 direction  3 min pos     1,
 dipolmoment           0.000000      0.000000      0.000000 electrons x Angstroem
 Tr[quadrupol]     -5913.442593

 energy correction for charged system         0.000000 eV
 dipol+quadrupol energy correction           -0.000000 eV
 added-field ion interaction         -0.000000 eV  (added to PSCEN)


 Free energy of the ion-electron system (eV)
  ---------------------------------------------------
  alpha Z        PSCENC =       883.92154302
  Ewald energy   TEWEN  =    143180.32833697
  -Hartree energ DENC   =   -178678.26465747
  -exchange      EXHF   =         0.00000000
  -V(xc)+E(xc)   XCENC  =      1751.54306494
  PAW double counting   =     31854.93933934   -38018.55599435
  entropy T*S    EENTRO =        -0.00000000
  eigenvalues    EBANDS =    -11811.76136087
  atomic energy  EATOM  =     47619.54939170
  ---------------------------------------------------
  free energy    TOTEN  =     -3218.30033672 eV

  energy without entropy =    -3218.30033672  energy(sigma->0) =    -3218.30033672
  exchange ACFDT corr.  =         0.00000000  see jH, gK, PRB 81, 115126


--------------------------------------------------------------------------------------------------------




--------------------------------------- Iteration      1(   4)  ---------------------------------------


    TRIAL :  cpu time     40.7319: real time     40.7428
    CORREC:  cpu time      0.0004: real time      0.0005
    --------------------------------------------
      LOOP:  cpu time     40.7498: real time     40.7615

 eigenvalue-minimisations  :  3584
 total energy-change (2. order) :-0.1524775E+01  (-0.1524763E+01)
 number of electron     448.0000000 magnetization 
 augmentation part      448.0000000 magnetization 

 DIPCOR: dipole corrections for dipol
 direction  3 min pos     1,
 dipolmoment           0.000000      0.000000      0.000000 electrons x Angstroem
 Tr[quadrupol]     -5913.442593

 energy correction for charged system         0.000000 eV
 dipol+quadrupol energy correction           -0.000000 eV
 added-field ion interaction         -0.000000 eV  (added to PSCEN)


 Free energy of the ion-electron system (eV)
  ---------------------------------------------------
  alpha Z        PSCENC =       883.92154302
  Ewald energy   TEWEN  =    143180.32833697
  -Hartree energ DENC   =   -178678.26465747
  -exchange      EXHF   =         0.00000000
  -V(xc)+E(xc)   XCENC  =      1751.54306494
  PAW double counting   =     31854.93933934   -38018.55599435
  entropy T*S    EENTRO =        -0.00000000
  eigenvalues    EBANDS =    -11813.28613603
  atomic energy  EATOM  =     47619.54939170
  ---------------------------------------------------
  free energy    TOTEN  =     -3219.82511189 eV

  energy without entropy =    -3219.82511189  energy(sigma->0) =    -3219.82511189
  exchange ACFDT corr.  =         0.00000000  see jH, gK, PRB 81, 115126


--------------------------------------------------------------------------------------------------------




--------------------------------------- Iteration      1(   5)  ---------------------------------------


    POTLOK:  cpu time      0.3555: real time      0.3559
    SETDIJ:  cpu time      0.3903: real time      0.3903
    TRIAL :  cpu time    108.7602: real time    108.8039
    CORREC:  cpu time      0.0003: real time      0.0003
    CHARGE:  cpu time      0.2433: real time      0.2439
    --------------------------------------------
      LOOP:  cpu time    109.7559: real time    109.8088

 eigenvalue-minimisations  :  4608
 total energy-change (2. order) : 0.2702036E+04  (-0.1919837E+01)
 number of electron     447.9999522 magnetization 
 augmentation part      160.1488449 magnetization 

 DIPCOR: dipole corrections for dipol
 direction  3 min pos     1,
 dipolmoment           0.000000      0.000000      0.000000 electrons x Angstroem
 Tr[quadrupol]     -5913.442593

 energy correction for charged system         0.000000 eV
 dipol+quadrupol energy correction           -0.000000 eV
 added-field ion interaction         -0.000000 eV  (added to PSCEN)


 Free energy of the ion-electron system (eV)
  ---------------------------------------------------
  alpha Z        PSCENC =       883.92154302
  Ewald energy   TEWEN  =    143180.32833697
  -Hartree energ DENC   =   -178678.26465747
  -exchange      EXHF   =      1337.40908818
  -V(xc)+E(xc)   XCENC  =      1392.92973144
  PAW double counting   =     32187.05919258   -35867.17307802
  entropy T*S    EENTRO =        -0.00000000
  eigenvalues    EBANDS =    -12573.54885633
  atomic energy  EATOM  =     47619.54939170
  ---------------------------------------------------
  free energy    TOTEN  =      -517.78930794 eV

  energy without entropy =     -517.78930794  energy(sigma->0) =     -517.78930794
  exchange ACFDT corr.  =        -0.00000000  see jH, gK, PRB 81, 115126


--------------------------------------------------------------------------------------------------------




--------------------------------------- Iteration      1(   6)  ---------------------------------------


    POTLOK:  cpu time      0.3446: real time      0.3446
    SETDIJ:  cpu time      0.3882: real time      0.3886
    TRIAL :  cpu time     34.3323: real time     34.3448
    CORREC:  cpu time     57.5960: real time     57.6130
    CHARGE:  cpu time      0.2331: real time      0.2331
    --------------------------------------------
      LOOP:  cpu time     92.9127: real time     92.9432

 eigenvalue-minimisations  :     0
 total energy-change (2. order) : 0.2286872E+03  (-0.1196890E+03)
 number of electron     447.9999522 magnetization 
 augmentation part      156.2842500 magnetization 

 DIPCOR: dipole corrections for dipol
 direction  3 min pos     1,
 dipolmoment           0.000000      0.000000      0.381670 electrons x Angstroem
 Tr[quadrupol]     -5964.662512

 energy correction for charged system         0.000000 eV
 dipol+quadrupol energy correction           -0.008758 eV
 added-field ion interaction         -0.003834 eV  (added to PSCEN)


 Free energy of the ion-electron system (eV)
  ---------------------------------------------------
  alpha Z        PSCENC =       883.90132169
  Ewald energy   TEWEN  =    143180.32833697
  -Hartree energ DENC   =   -182821.67598930
  -exchange      EXHF   =      1344.83357342
  -V(xc)+E(xc)   XCENC  =      1509.08042736
  PAW double counting   =     37028.18057120   -40671.20273128
  entropy T*S    EENTRO =        -0.00000000
  eigenvalues    EBANDS =     -8362.09705091
  atomic energy  EATOM  =     47619.54939170
  ---------------------------------------------------
  free energy    TOTEN  =      -289.10214917 eV

  energy without entropy =     -289.10214917  energy(sigma->0) =     -289.10214917
  exchange ACFDT corr.  =         0.00000000  see jH, gK, PRB 81, 115126


--------------------------------------------------------------------------------------------------------




--------------------------------------- Iteration      1(   7)  ---------------------------------------


    POTLOK:  cpu time      0.3577: real time      0.3577
    SETDIJ:  cpu time      0.3890: real time      0.3892
    TRIAL :  cpu time     44.0666: real time     44.0807
    CORREC:  cpu time     34.5353: real time     34.5468
    CHARGE:  cpu time      0.2369: real time      0.2372
    --------------------------------------------
      LOOP:  cpu time     79.5924: real time     79.6290

 eigenvalue-minimisations  :     0
 total energy-change (2. order) :-0.1191721E+03  (-0.1772704E+02)
 number of electron     447.9999525 magnetization 
 augmentation part      154.2604062 magnetization 

 DIPCOR: dipole corrections for dipol
 direction  3 min pos     1,
 dipolmoment           0.000000      0.000000      0.268687 electrons x Angstroem
 Tr[quadrupol]     -5959.970958

 energy correction for charged system         0.000000 eV
 dipol+quadrupol energy correction           -0.004340 eV
 added-field ion interaction         -0.002699 eV  (added to PSCEN)


 Free energy of the ion-electron system (eV)
  ---------------------------------------------------
  alpha Z        PSCENC =       883.91104263
  Ewald energy   TEWEN  =    143180.32833697
  -Hartree energ DENC   =   -181012.32430437
  -exchange      EXHF   =      1294.83072717
  -V(xc)+E(xc)   XCENC  =      1445.86764136
  PAW double counting   =     36292.09927792   -39965.81719078
  entropy T*S    EENTRO =        -0.00000000
  eigenvalues    EBANDS =    -10146.71913484
  atomic energy  EATOM  =     47619.54939170
  ---------------------------------------------------
  free energy    TOTEN  =      -408.27421225 eV

  energy without entropy =     -408.27421225  energy(sigma->0) =     -408.27421225
  exchange ACFDT corr.  =         0.00000000  see jH, gK, PRB 81, 115126


--------------------------------------------------------------------------------------------------------




--------------------------------------- Iteration      1(   8)  ---------------------------------------


    POTLOK:  cpu time      0.3405: real time      0.3406
    SETDIJ:  cpu time      0.3890: real time      0.3890
    TRIAL :  cpu time     33.9284: real time     33.9399
    CORREC:  cpu time     39.2240: real time     39.2383
    CHARGE:  cpu time      0.2479: real time      0.2480
    --------------------------------------------
      LOOP:  cpu time     74.1444: real time     74.1706

 eigenvalue-minimisations  :     0
 total energy-change (2. order) :-0.1756353E+02  (-0.5891955E+01)
 number of electron     447.9999523 magnetization 
 augmentation part      154.6409171 magnetization 

 DIPCOR: dipole corrections for dipol
 direction  3 min pos     1,
 dipolmoment           0.000000      0.000000      0.109804 electrons x Angstroem
 Tr[quadrupol]     -5951.078712

 energy correction for charged system         0.000000 eV
 dipol+quadrupol energy correction           -0.000725 eV
 added-field ion interaction         -0.001103 eV  (added to PSCEN)


 Free energy of the ion-electron system (eV)
  ---------------------------------------------------
  alpha Z        PSCENC =       883.91806218
  Ewald energy   TEWEN  =    143180.32833697
  -Hartree energ DENC   =   -180706.12005849
  -exchange      EXHF   =      1283.28908894
  -V(xc)+E(xc)   XCENC  =      1433.61187829
  PAW double counting   =     35757.97816718   -39399.42109482
  entropy T*S    EENTRO =        -0.00000000
  eigenvalues    EBANDS =    -10478.97151180
  atomic energy  EATOM  =     47619.54939170
  ---------------------------------------------------
  free energy    TOTEN  =      -425.83773984 eV

  energy without entropy =     -425.83773984  energy(sigma->0) =     -425.83773984
  exchange ACFDT corr.  =         0.00000000  see jH, gK, PRB 81, 115126


--------------------------------------------------------------------------------------------------------




--------------------------------------- Iteration      1(   9)  ---------------------------------------


    POTLOK:  cpu time      0.3534: real time      0.3534
    SETDIJ:  cpu time      0.3898: real time      0.3900
    TRIAL :  cpu time     57.7264: real time     57.7631
    CORREC:  cpu time     34.9794: real time     34.9921
    CHARGE:  cpu time      0.2520: real time      0.2524
    --------------------------------------------
      LOOP:  cpu time     93.7165: real time     93.7668

 eigenvalue-minimisations  :     0
 total energy-change (2. order) :-0.5857982E+01  (-0.1287790E+01)
 number of electron     447.9999523 magnetization 
 augmentation part      154.7969156 magnetization 

 DIPCOR: dipole corrections for dipol
 direction  3 min pos     1,
 dipolmoment           0.000000      0.000000      0.119024 electrons x Angstroem
 Tr[quadrupol]     -5947.548892

 energy correction for charged system         0.000000 eV
 dipol+quadrupol energy correction           -0.000852 eV
 added-field ion interaction         -0.001196 eV  (added to PSCEN)


 Free energy of the ion-electron system (eV)
  ---------------------------------------------------
  alpha Z        PSCENC =       883.92001098
  Ewald energy   TEWEN  =    143180.32833697
  -Hartree energ DENC   =   -180430.07599242
  -exchange      EXHF   =      1279.51413351
  -V(xc)+E(xc)   XCENC  =      1431.48853438
  PAW double counting   =     35486.11259314   -39164.58780827
  entropy T*S    EENTRO =        -0.00000000
  eigenvalues    EBANDS =    -10717.94492180
  atomic energy  EATOM  =     47619.54939170
  ---------------------------------------------------
  free energy    TOTEN  =      -431.69572181 eV

  energy without entropy =     -431.69572181  energy(sigma->0) =     -431.69572181
  exchange ACFDT corr.  =         0.00000000  see jH, gK, PRB 81, 115126


--------------------------------------------------------------------------------------------------------




--------------------------------------- Iteration      1(  10)  ---------------------------------------


    POTLOK:  cpu time      0.3339: real time      0.3339
    SETDIJ:  cpu time      0.3899: real time      0.3899
    TRIAL :  cpu time     33.9878: real time     33.9979
    CORREC:  cpu time     58.5347: real time     58.5530
    CHARGE:  cpu time      0.2518: real time      0.2518
    --------------------------------------------
      LOOP:  cpu time     93.5165: real time     93.5456

 eigenvalue-minimisations  :     0
 total energy-change (2. order) :-0.1287913E+01  (-0.3799211E+00)
 number of electron     447.9999523 magnetization 
 augmentation part      154.9141787 magnetization 

 DIPCOR: dipole corrections for dipol
 direction  3 min pos     1,
 dipolmoment           0.000000      0.000000      0.147988 electrons x Angstroem
 Tr[quadrupol]     -5947.824614

 energy correction for charged system         0.000000 eV
 dipol+quadrupol energy correction           -0.001317 eV
 added-field ion interaction         -0.001487 eV  (added to PSCEN)


 Free energy of the ion-electron system (eV)
  ---------------------------------------------------
  alpha Z        PSCENC =       883.91952437
  Ewald energy   TEWEN  =    143180.32833697
  -Hartree energ DENC   =   -180359.63067174
  -exchange      EXHF   =      1278.61210762
  -V(xc)+E(xc)   XCENC  =      1431.13040212
  PAW double counting   =     35400.50657253   -39079.25158311
  entropy T*S    EENTRO =        -0.00000000
  eigenvalues    EBANDS =    -10788.14771549
  atomic energy  EATOM  =     47619.54939170
  ---------------------------------------------------
  free energy    TOTEN  =      -432.98363505 eV

  energy without entropy =     -432.98363505  energy(sigma->0) =     -432.98363505
  exchange ACFDT corr.  =         0.00000000  see jH, gK, PRB 81, 115126


--------------------------------------------------------------------------------------------------------




--------------------------------------- Iteration      1(  11)  ---------------------------------------


    POTLOK:  cpu time      0.3715: real time      0.3718
    SETDIJ:  cpu time      0.3900: real time      0.3900
    TRIAL :  cpu time     56.9681: real time     56.9856
    CORREC:  cpu time     34.9343: real time     34.9465
    CHARGE:  cpu time      0.2576: real time      0.2576
    --------------------------------------------
      LOOP:  cpu time     92.9286: real time     92.9672

 eigenvalue-minimisations  :     0
 total energy-change (2. order) :-0.3800171E+00  (-0.1074214E+00)
 number of electron     447.9999523 magnetization 
 augmentation part      154.9816104 magnetization 

 DIPCOR: dipole corrections for dipol
 direction  3 min pos     1,
 dipolmoment           0.000000      0.000000      0.163701 electrons x Angstroem
 Tr[quadrupol]     -5948.278448

 energy correction for charged system         0.000000 eV
 dipol+quadrupol energy correction           -0.001611 eV
 added-field ion interaction         -0.001644 eV  (added to PSCEN)


 Free energy of the ion-electron system (eV)
  ---------------------------------------------------
  alpha Z        PSCENC =       883.91867346
  Ewald energy   TEWEN  =    143180.32833697
  -Hartree energ DENC   =   -180373.91851831
  -exchange      EXHF   =      1278.80840437
  -V(xc)+E(xc)   XCENC  =      1431.62160509
  PAW double counting   =     35366.35325668   -39042.73547692
  entropy T*S    EENTRO =        -0.00000000
  eigenvalues    EBANDS =    -10777.28932519
  atomic energy  EATOM  =     47619.54939170
  ---------------------------------------------------
  free energy    TOTEN  =      -433.36365215 eV

  energy without entropy =     -433.36365215  energy(sigma->0) =     -433.36365215
  exchange ACFDT corr.  =         0.00000000  see jH, gK, PRB 81, 115126


--------------------------------------------------------------------------------------------------------




--------------------------------------- Iteration      1(  12)  ---------------------------------------


    POTLOK:  cpu time      0.3407: real time      0.3409
    SETDIJ:  cpu time      0.3900: real time      0.3900
    TRIAL :  cpu time     34.0104: real time     34.0215
    CORREC:  cpu time     44.5745: real time     44.5955
    CHARGE:  cpu time      0.2599: real time      0.2599
    --------------------------------------------
      LOOP:  cpu time     79.5945: real time     79.6273

 eigenvalue-minimisations  :     0
 total energy-change (2. order) :-0.1074525E+00  (-0.4026020E-01)
 number of electron     447.9999523 magnetization 
 augmentation part      154.9983489 magnetization 

 DIPCOR: dipole corrections for dipol
 direction  3 min pos     1,
 dipolmoment           0.000000      0.000000      0.167181 electrons x Angstroem
 Tr[quadrupol]     -5948.578711

 energy correction for charged system         0.000000 eV
 dipol+quadrupol energy correction           -0.001680 eV
 added-field ion interaction         -0.001679 eV  (added to PSCEN)


 Free energy of the ion-electron system (eV)
  ---------------------------------------------------
  alpha Z        PSCENC =       883.91824668
  Ewald energy   TEWEN  =    143180.32833697
  -Hartree energ DENC   =   -180398.79192418
  -exchange      EXHF   =      1279.12055620
  -V(xc)+E(xc)   XCENC  =      1432.04355932
  PAW double counting   =     35354.01750733   -39030.11975023
  entropy T*S    EENTRO =        -0.00000000
  eigenvalues    EBANDS =    -10753.53702848
  atomic energy  EATOM  =     47619.54939170
  ---------------------------------------------------
  free energy    TOTEN  =      -433.47110470 eV

  energy without entropy =     -433.47110470  energy(sigma->0) =     -433.47110470
  exchange ACFDT corr.  =         0.00000000  see jH, gK, PRB 81, 115126


--------------------------------------------------------------------------------------------------------




--------------------------------------- Iteration      1(  13)  ---------------------------------------


    POTLOK:  cpu time      0.3494: real time      0.3494
    SETDIJ:  cpu time      0.3897: real time      0.3899
    TRIAL :  cpu time     56.8292: real time     56.8452
    CORREC:  cpu time     35.1124: real time     35.1240
    CHARGE:  cpu time      0.2580: real time      0.2580
    --------------------------------------------
      LOOP:  cpu time     92.9437: real time     92.9859

 eigenvalue-minimisations  :     0
 total energy-change (2. order) :-0.4026639E-01  (-0.1583065E-01)
 number of electron     447.9999523 magnetization 
 augmentation part      154.9834358 magnetization 

 DIPCOR: dipole corrections for dipol
 direction  3 min pos     1,
 dipolmoment           0.000000      0.000000      0.167120 electrons x Angstroem
 Tr[quadrupol]     -5948.759543

 energy correction for charged system         0.000000 eV
 dipol+quadrupol energy correction           -0.001679 eV
 added-field ion interaction         -0.001679 eV  (added to PSCEN)


 Free energy of the ion-electron system (eV)
  ---------------------------------------------------
  alpha Z        PSCENC =       883.91816150
  Ewald energy   TEWEN  =    143180.32833697
  -Hartree energ DENC   =   -180412.86982761
  -exchange      EXHF   =      1279.26433308
  -V(xc)+E(xc)   XCENC  =      1432.16471028
  PAW double counting   =     35352.59456817   -39028.68862845
  entropy T*S    EENTRO =        -0.00000000
  eigenvalues    EBANDS =    -10739.77241673
  atomic energy  EATOM  =     47619.54939170
  ---------------------------------------------------
  free energy    TOTEN  =      -433.51137109 eV

  energy without entropy =     -433.51137109  energy(sigma->0) =     -433.51137109
  exchange ACFDT corr.  =         0.00000000  see jH, gK, PRB 81, 115126


--------------------------------------------------------------------------------------------------------




--------------------------------------- Iteration      1(  14)  ---------------------------------------


    POTLOK:  cpu time      0.3680: real time      0.3680
    SETDIJ:  cpu time      0.3898: real time      0.3900
    TRIAL :  cpu time     34.3282: real time     34.3384
    CORREC:  cpu time     35.0590: real time     35.0702
    CHARGE:  cpu time      0.2586: real time      0.2586
    --------------------------------------------
      LOOP:  cpu time     70.4211: real time     70.4433

 eigenvalue-minimisations  :     0
 total energy-change (2. order) :-0.1581092E-01  (-0.4727771E-02)
 number of electron     447.9999523 magnetization 
 augmentation part      154.9716529 magnetization 

 DIPCOR: dipole corrections for dipol
 direction  3 min pos     1,
 dipolmoment           0.000000      0.000000      0.166688 electrons x Angstroem
 Tr[quadrupol]     -5948.818122

 energy correction for charged system         0.000000 eV
 dipol+quadrupol energy correction           -0.001670 eV
 added-field ion interaction         -0.001674 eV  (added to PSCEN)


 Free energy of the ion-electron system (eV)
  ---------------------------------------------------
  alpha Z        PSCENC =       883.91819317
  Ewald energy   TEWEN  =    143180.32833697
  -Hartree energ DENC   =   -180416.88034120
  -exchange      EXHF   =      1279.30226962
  -V(xc)+E(xc)   XCENC  =      1432.13207410
  PAW double counting   =     35359.17676022   -39034.99222839
  entropy T*S    EENTRO =        -0.00000000
  eigenvalues    EBANDS =    -10736.06163820
  atomic energy  EATOM  =     47619.54939170
  ---------------------------------------------------
  free energy    TOTEN  =      -433.52718202 eV

  energy without entropy =     -433.52718202  energy(sigma->0) =     -433.52718202
  exchange ACFDT corr.  =        -0.00000000  see jH, gK, PRB 81, 115126


--------------------------------------------------------------------------------------------------------




--------------------------------------- Iteration      1(  15)  ---------------------------------------


    POTLOK:  cpu time     11.3049: real time     11.3083
    SETDIJ:  cpu time      0.3902: real time      0.3902
    TRIAL :  cpu time     59.9011: real time     59.9201
    CORREC:  cpu time     34.9776: real time     34.9891
    CHARGE:  cpu time      0.2583: real time      0.2583
    --------------------------------------------
      LOOP:  cpu time    106.8379: real time    106.8864

 eigenvalue-minimisations  :     0
 total energy-change (2. order) :-0.4723833E-02  (-0.1490279E-02)
 number of electron     447.9999523 magnetization 
 augmentation part      154.9676073 magnetization 

 DIPCOR: dipole corrections for dipol
 direction  3 min pos     1,
 dipolmoment           0.000000      0.000000      0.166675 electrons x Angstroem
 Tr[quadrupol]     -5948.812131

 energy correction for charged system         0.000000 eV
 dipol+quadrupol energy correction           -0.001670 eV
 added-field ion interaction         -0.001674 eV  (added to PSCEN)


 Free energy of the ion-electron system (eV)
  ---------------------------------------------------
  alpha Z        PSCENC =       883.91819935
  Ewald energy   TEWEN  =    143180.32833697
  -Hartree energ DENC   =   -180418.15687722
  -exchange      EXHF   =      1279.35172822
  -V(xc)+E(xc)   XCENC  =      1432.15284414
  PAW double counting   =     35365.30094253   -39040.82980415
  entropy T*S    EENTRO =        -0.00000000
  eigenvalues    EBANDS =    -10735.14666738
  atomic energy  EATOM  =     47619.54939170
  ---------------------------------------------------
  free energy    TOTEN  =      -433.53190585 eV

  energy without entropy =     -433.53190585  energy(sigma->0) =     -433.53190585
  exchange ACFDT corr.  =         0.00000000  see jH, gK, PRB 81, 115126


--------------------------------------------------------------------------------------------------------




--------------------------------------- Iteration      1(  16)  ---------------------------------------


    POTLOK:  cpu time      0.3807: real time      0.3807
    SETDIJ:  cpu time      0.3900: real time      0.3902
    TRIAL :  cpu time     34.2343: real time     34.2627
    CORREC:  cpu time     34.9986: real time     35.0097
    CHARGE:  cpu time      0.2582: real time      0.2582
    --------------------------------------------
      LOOP:  cpu time     70.2795: real time     70.3200

 eigenvalue-minimisations  :     0
 total energy-change (2. order) :-0.1494376E-02  (-0.4932392E-03)
 number of electron     447.9999523 magnetization 
 augmentation part      154.9663546 magnetization 

 DIPCOR: dipole corrections for dipol
 direction  3 min pos     1,
 dipolmoment           0.000000      0.000000      0.166233 electrons x Angstroem
 Tr[quadrupol]     -5948.781570

 energy correction for charged system         0.000000 eV
 dipol+quadrupol energy correction           -0.001661 eV
 added-field ion interaction         -0.001670 eV  (added to PSCEN)


 Free energy of the ion-electron system (eV)
  ---------------------------------------------------
  alpha Z        PSCENC =       883.91819836
  Ewald energy   TEWEN  =    143180.32833697
  -Hartree energ DENC   =   -180418.19885117
  -exchange      EXHF   =      1279.39226570
  -V(xc)+E(xc)   XCENC  =      1432.19016088
  PAW double counting   =     35368.18916783   -39043.59345727
  entropy T*S    EENTRO =        -0.00000000
  eigenvalues    EBANDS =    -10735.30861322
  atomic energy  EATOM  =     47619.54939170
  ---------------------------------------------------
  free energy    TOTEN  =      -433.53340022 eV

  energy without entropy =     -433.53340022  energy(sigma->0) =     -433.53340022
  exchange ACFDT corr.  =         0.00000000  see jH, gK, PRB 81, 115126


--------------------------------------------------------------------------------------------------------




--------------------------------------- Iteration      1(  17)  ---------------------------------------


    POTLOK:  cpu time      0.3440: real time      0.3442
    SETDIJ:  cpu time      0.3900: real time      0.3900
    TRIAL :  cpu time     61.2868: real time     61.3047
    CORREC:  cpu time     45.1213: real time     45.1355
    CHARGE:  cpu time      0.2578: real time      0.2578
    --------------------------------------------
      LOOP:  cpu time    107.4146: real time    107.4474

 eigenvalue-minimisations  :     0
 total energy-change (2. order) :-0.4825882E-03  (-0.1613323E-03)
 number of electron     447.9999523 magnetization 
 augmentation part      154.9659123 magnetization 

 DIPCOR: dipole corrections for dipol
 direction  3 min pos     1,
 dipolmoment           0.000000      0.000000      0.165623 electrons x Angstroem
 Tr[quadrupol]     -5948.751400

 energy correction for charged system         0.000000 eV
 dipol+quadrupol energy correction           -0.001649 eV
 added-field ion interaction         -0.001664 eV  (added to PSCEN)


 Free energy of the ion-electron system (eV)
  ---------------------------------------------------
  alpha Z        PSCENC =       883.91821580
  Ewald energy   TEWEN  =    143180.32833697
  -Hartree energ DENC   =   -180417.03782605
  -exchange      EXHF   =      1279.39642435
  -V(xc)+E(xc)   XCENC  =      1432.19610178
  PAW double counting   =     35368.43615479   -39043.81694751
  entropy T*S    EENTRO =        -0.00000000
  eigenvalues    EBANDS =    -10736.50373464
  atomic energy  EATOM  =     47619.54939170
  ---------------------------------------------------
  free energy    TOTEN  =      -433.53388281 eV

  energy without entropy =     -433.53388281  energy(sigma->0) =     -433.53388281
  exchange ACFDT corr.  =         0.00000000  see jH, gK, PRB 81, 115126


--------------------------------------------------------------------------------------------------------




--------------------------------------- Iteration      1(  18)  ---------------------------------------


    POTLOK:  cpu time      0.3504: real time      0.3505
    SETDIJ:  cpu time      0.3899: real time      0.3901
    TRIAL :  cpu time     34.1282: real time     34.1396
    CORREC:  cpu time     34.9808: real time     34.9923
    CHARGE:  cpu time      0.2579: real time      0.2579
    --------------------------------------------
      LOOP:  cpu time     70.1118: real time     70.1475

 eigenvalue-minimisations  :     0
 total energy-change (2. order) :-0.1566780E-03  (-0.4808744E-04)
 number of electron     447.9999523 magnetization 
 augmentation part      154.9658876 magnetization 

 DIPCOR: dipole corrections for dipol
 direction  3 min pos     1,
 dipolmoment           0.000000      0.000000      0.165551 electrons x Angstroem
 Tr[quadrupol]     -5948.735524

 energy correction for charged system         0.000000 eV
 dipol+quadrupol energy correction           -0.001648 eV
 added-field ion interaction         -0.001663 eV  (added to PSCEN)


 Free energy of the ion-electron system (eV)
  ---------------------------------------------------
  alpha Z        PSCENC =       883.91823294
  Ewald energy   TEWEN  =    143180.32833697
  -Hartree energ DENC   =   -180415.89551276
  -exchange      EXHF   =      1279.38279788
  -V(xc)+E(xc)   XCENC  =      1432.18336735
  PAW double counting   =     35367.91325667   -39043.29880301
  entropy T*S    EENTRO =        -0.00000000
  eigenvalues    EBANDS =    -10737.61510723
  atomic energy  EATOM  =     47619.54939170
  ---------------------------------------------------
  free energy    TOTEN  =      -433.53403949 eV

  energy without entropy =     -433.53403949  energy(sigma->0) =     -433.53403949
  exchange ACFDT corr.  =         0.00000000  see jH, gK, PRB 81, 115126


--------------------------------------------------------------------------------------------------------




--------------------------------------- Iteration      1(  19)  ---------------------------------------


    POTLOK:  cpu time      0.3449: real time      0.3449
    SETDIJ:  cpu time      0.3898: real time      0.3901
    TRIAL :  cpu time     60.0080: real time     60.0261
    CORREC:  cpu time     43.6004: real time     43.6205
    CHARGE:  cpu time      0.2577: real time      0.2582
    --------------------------------------------
      LOOP:  cpu time    104.6057: real time    104.6578

 eigenvalue-minimisations  :     0
 total energy-change (2. order) :-0.4365046E-04  (-0.2064482E-04)
 number of electron     447.9999523 magnetization 
 augmentation part      154.9660303 magnetization 

 DIPCOR: dipole corrections for dipol
 direction  3 min pos     1,
 dipolmoment           0.000000      0.000000      0.165418 electrons x Angstroem
 Tr[quadrupol]     -5948.736126

 energy correction for charged system         0.000000 eV
 dipol+quadrupol energy correction           -0.001645 eV
 added-field ion interaction         -0.001662 eV  (added to PSCEN)


 Free energy of the ion-electron system (eV)
  ---------------------------------------------------
  alpha Z        PSCENC =       883.91823245
  Ewald energy   TEWEN  =    143180.32833697
  -Hartree energ DENC   =   -180415.47568088
  -exchange      EXHF   =      1279.37514856
  -V(xc)+E(xc)   XCENC  =      1432.17614948
[...]
    506      18.6706      0.00000
    507      18.9017      0.00000
    508      18.9930      0.00000
    509      19.3505      0.00000
    510      19.4266      0.00000
    511      19.4891      0.00000
    512      19.5920      0.00000


--------------------------------------------------------------------------------------------------------


 soft charge-density along one line, spin component           1
         0         1         2         3         4         5         6         7         8         9
 total charge-density along one line

 pseudopotential strength for first ion, spin component:           1
-49.930  -0.000  -0.000   5.916   0.000   0.000  -0.000   0.000
 -0.000 -49.985   0.000   0.000   5.940  -0.000  -0.031   0.080
 -0.000   0.000 -49.930   0.000  -0.000   5.916  -0.000   0.000
  5.916   0.000   0.000   4.685  -0.000  -0.000   0.000  -0.000
  0.000   5.940  -0.000  -0.000   4.688   0.000  -0.002   0.005
  0.000  -0.000   5.916  -0.000   0.000   4.685   0.000  -0.000
 -0.000  -0.031  -0.000   0.000  -0.002   0.000   2.917 -10.650
  0.000   0.080   0.000  -0.000   0.005  -0.000 -10.650  44.221
  0.000   0.000   0.000  -0.000  -0.000  -0.000   0.000  -0.000
  0.010   0.000   0.000  -0.006  -0.000  -0.000  -0.000   0.000
 -0.000   0.011  -0.000   0.000  -0.013   0.000   0.007  -0.016
  0.000   0.000   0.010  -0.000  -0.000  -0.006  -0.000   0.000
 -0.000   0.000   0.000   0.000   0.000  -0.000   0.000   0.000
 total augmentation occupancy for first ion, spin component:           1
  2.002  -0.000   0.000  -0.008  -0.000   0.000  -0.000  -0.000   0.000  -0.008   0.000  -0.000  -0.000
 -0.000   2.003   0.000   0.000  -0.001   0.000   0.001   0.004   0.000   0.000  -0.014  -0.000   0.000
  0.000   0.000   2.002   0.000  -0.000  -0.008  -0.000  -0.000   0.000  -0.000  -0.000  -0.008   0.000
 -0.008   0.000   0.000   0.077  -0.000   0.000   0.000   0.000  -0.000   0.001  -0.000  -0.000   0.000
 -0.000  -0.001  -0.000  -0.000   0.046  -0.000   0.040   0.001  -0.000  -0.000   0.027  -0.000  -0.000
  0.000   0.000  -0.008   0.000  -0.000   0.077  -0.000   0.000  -0.000  -0.000   0.000   0.001  -0.000
 -0.000   0.001  -0.000   0.000   0.040  -0.000   0.812   0.017  -0.000  -0.000  -0.041  -0.000   0.000
 -0.000   0.004  -0.000   0.000   0.001   0.000   0.017   0.000  -0.000   0.000  -0.001   0.000   0.000
  0.000   0.000   0.000  -0.000  -0.000  -0.000  -0.000  -0.000   0.013   0.000   0.000   0.000   0.000
 -0.008   0.000  -0.000   0.001  -0.000  -0.000  -0.000   0.000   0.000   0.011  -0.000   0.000  -0.000
  0.000  -0.014  -0.000  -0.000   0.027   0.000  -0.041  -0.001   0.000  -0.000   0.033   0.000  -0.000
 -0.000  -0.000  -0.008  -0.000  -0.000   0.001  -0.000   0.000   0.000   0.000   0.000   0.011   0.000
 -0.000   0.000   0.000   0.000  -0.000  -0.000   0.000   0.000   0.000  -0.000  -0.000   0.000   0.055


------------------------ aborting loop because EDIFF is reached ----------------------------------------


    FORLOC:  cpu time      0.0136: real time      0.0136
    FORHF :  cpu time     18.5563: real time     18.5574
    FORNL :  cpu time      0.1259: real time      0.1259
    STRESS:  cpu time      0.4793: real time      0.4793
    FORCOR:  cpu time      0.3217: real time      0.3217
    OFIELD:  cpu time      0.0001: real time      0.0001

  Number of pair interactions contributing to vdW energy:  731232
  Edisp (eV):   -5.17057
    FORVDW:  cpu time      0.1087: real time      0.1087

  FORCE on cell =-STRESS in cart. coord.  units (eV):
  Direction    XX          YY          ZZ          XY          YZ          ZX
  --------------------------------------------------------------------------------------
  Alpha Z   883.92154   883.92154   883.92154
  Ewald  163392.41628163392.41628************     0.00000     0.00000     0.00000
  Hartree173483.09039173483.09039************    -0.00000    -0.00000    -0.00000
  E(xc)   -2001.91499 -2001.91499 -2005.23759    -0.00000    -0.00000    -0.00000
  Local  ************************347236.73915    -0.00000     0.00000    -0.00000
  n-local -1169.08634 -1169.52935 -1191.83488     0.00001     0.00000     0.00000
  augment   896.78762   896.78762   886.49008     0.00000    -0.00000    -0.00000
  Kinetic  7339.40972  7341.24462  7377.63752    -0.00000    -0.00000    -0.00000
  Fock    -1997.19817 -1997.30642 -1993.98208    -0.00000     0.00000     0.00000
  vdW        -7.55859    -7.55859    -6.14482     0.00000     0.00000    -0.00000
  -------------------------------------------------------------------------------------
  Total     -30.87473   -30.87473    -2.42792     0.00000     0.00000     0.00000
  in kB     -32.86992   -32.86992    -2.58482     0.00000     0.00000     0.00000
  external pressure =      -22.77 kB  Pullay stress =        0.00 kB


 VOLUME and BASIS-vectors are now :
 -----------------------------------------------------------------------------
  energy-cutoff  :      600.00
  volume of cell :     1504.93
      direct lattice vectors                 reciprocal lattice vectors
     8.404861995  0.000000000  0.000000000     0.118978753  0.000000000  0.000000000
     0.000000000  8.404861995  0.000000000     0.000000000  0.118978753  0.000000000
     0.000000000  0.000000000 21.303646496     0.000000000  0.000000000  0.046940321

  length of vectors
     8.404861995  8.404861995 21.303646496     0.118978753  0.118978753  0.046940321


 FORCES acting on ions:
    Electron-Ion                     Ewald-Force                    Non-Local-Force
 -----------------------------------------------------------------------------------------------
   0.190E-12 0.287E-13 0.209E+04   0.118E-12 0.353E-13 -.208E+04   0.209E-23 -.165E-23 -.641E+01
   0.686E-12 -.109E-11 0.209E+04   0.767E-13 0.204E-13 -.208E+04   0.165E-23 0.827E-24 -.641E+01
   0.285E-12 0.392E-12 0.692E+03   0.135E-12 0.604E-13 -.693E+03   0.116E-22 0.662E-23 0.410E+00
   0.576E-12 -.812E-13 0.692E+03   0.101E-12 0.252E-13 -.693E+03   0.153E-22 -.331E-23 0.410E+00
   0.246E-12 -.169E-12 -.697E+03   0.178E-12 0.261E-13 0.697E+03   -.132E-22 0.000E+00 -.244E+00
   0.553E-12 0.358E-12 -.697E+03   0.117E-12 0.426E-13 0.697E+03   -.215E-22 -.185E-21 -.244E+00
   0.132E-12 0.916E-12 -.208E+04   -.355E-14 0.213E-13 0.207E+04   0.132E-22 -.265E-22 0.550E+01
   0.648E-12 0.101E-12 -.208E+04   -.100E-12 0.256E-13 0.207E+04   -.199E-22 0.265E-22 0.550E+01
   0.182E-12 0.637E-12 0.209E+04   0.631E-13 -.329E-13 -.208E+04   -.538E-23 -.165E-23 -.641E+01
   0.692E-12 0.165E-11 0.209E+04   0.108E-12 0.711E-14 -.208E+04   -.393E-23 -.248E-23 -.641E+01
   0.276E-12 0.331E-12 0.692E+03   0.114E-12 -.107E-13 -.693E+03   -.476E-23 0.000E+00 0.410E+00
   0.575E-12 0.605E-12 0.692E+03   0.173E-12 0.498E-13 -.693E+03   0.273E-22 -.141E-22 0.410E+00
   0.237E-12 0.223E-12 -.697E+03   0.568E-13 0.281E-13 0.697E+03   -.185E-21 0.169E-22 -.244E+00
   0.561E-12 0.744E-12 -.697E+03   0.139E-12 -.338E-13 0.697E+03   0.662E-23 -.101E-21 -.244E+00
   0.126E-12 0.137E-11 -.208E+04   -.675E-13 0.497E-13 0.207E+04   0.695E-22 0.827E-23 0.550E+01
   0.648E-12 -.118E-11 -.208E+04   -.421E-13 0.425E-13 0.207E+04   -.550E-22 0.794E-22 0.550E+01
   0.941E-12 0.676E-14 0.209E+04   -.888E-15 0.347E-13 -.208E+04   -.496E-23 -.807E-23 -.641E+01
   -.222E-13 0.211E-12 0.209E+04   0.141E-12 0.187E-13 -.208E+04   -.165E-23 -.579E-23 -.641E+01
   0.872E-12 -.377E-11 0.692E+03   0.959E-13 0.568E-13 -.693E+03   0.434E-23 -.662E-23 0.410E+00
   -.134E-13 -.913E-13 0.692E+03   0.320E-13 -.110E-13 -.693E+03   -.265E-22 0.165E-22 0.410E+00
   0.848E-12 -.200E-12 -.697E+03   0.799E-13 0.281E-13 0.697E+03   -.265E-22 -.662E-22 -.244E+00
   -.533E-13 0.338E-13 -.697E+03   0.185E-12 0.568E-13 0.697E+03   0.529E-22 -.926E-22 -.244E+00
   0.892E-12 -.359E-11 -.208E+04   -.391E-13 0.391E-13 0.207E+04   -.331E-22 -.106E-21 0.550E+01
   -.532E-13 0.947E-13 -.208E+04   -.359E-14 0.502E-13 0.207E+04   -.397E-22 -.397E-22 0.550E+01
   0.962E-12 0.262E-11 0.209E+04   0.755E-13 -.981E-14 -.208E+04   -.827E-23 -.600E-23 -.641E+01
   -.156E-13 0.991E-12 0.209E+04   0.639E-13 -.195E-13 -.208E+04   -.538E-23 0.207E-23 -.641E+01
   0.880E-12 -.798E-12 0.692E+03   0.103E-12 0.711E-14 -.693E+03   0.910E-23 -.149E-22 0.410E+00
   -.765E-14 0.372E-12 0.692E+03   0.564E-13 0.246E-13 -.693E+03   0.269E-23 -.199E-22 0.410E+00
   0.847E-12 -.169E-11 -.697E+03   0.171E-12 0.282E-13 0.697E+03   -.172E-21 0.132E-22 -.244E+00
   -.560E-13 0.883E-12 -.697E+03   0.142E-12 0.284E-13 0.697E+03   0.662E-22 0.132E-21 -.244E+00
   0.902E-12 -.255E-11 -.208E+04   0.142E-13 0.178E-13 0.207E+04   -.860E-22 0.331E-22 0.550E+01
   -.591E-13 0.578E-12 -.208E+04   -.724E-14 0.107E-13 0.207E+04   -.135E-22 -.529E-22 0.550E+01
   0.157E-12 -.276E-12 0.519E+03   -.132E-12 -.566E-13 -.519E+03   -.910E-23 -.476E-23 -.905E-01
   0.260E-12 -.394E-12 0.519E+03   -.568E-13 -.293E-13 -.519E+03   -.165E-23 -.110E-22 -.905E-01
   0.577E-13 0.238E-12 0.157E+04   -.101E-12 -.613E-13 -.157E+04   0.496E-23 0.662E-23 0.312E+01
   0.324E-12 0.558E-13 0.157E+04   -.627E-13 -.311E-13 -.157E+04   0.000E+00 0.165E-23 0.312E+01
   0.882E-13 -.372E-13 -.158E+04   -.710E-12 -.893E-12 0.158E+04   -.496E-23 0.331E-22 -.455E+01
   0.348E-12 -.367E-11 -.158E+04   0.942E-12 0.757E-12 0.158E+04   0.265E-22 0.331E-22 -.455E+01
   0.140E-12 0.930E-12 -.517E+03   -.171E-12 -.853E-13 0.517E+03   0.000E+00 -.827E-24 0.269E+00
   0.265E-12 0.676E-14 -.517E+03   -.212E-12 -.851E-13 0.517E+03   0.000E+00 0.000E+00 0.269E+00
   0.149E-12 0.981E-13 0.519E+03   0.689E-12 -.853E-12 -.519E+03   -.579E-23 0.993E-23 -.905E-01
   0.263E-12 0.257E-12 0.519E+03   -.931E-12 0.816E-12 -.519E+03   -.910E-23 -.496E-23 -.905E-01
   0.401E-13 0.577E-12 0.157E+04   -.813E-13 -.311E-13 -.157E+04   0.116E-22 -.227E-23 0.312E+01
   0.313E-12 0.247E-12 0.157E+04   -.100E-12 0.164E-13 -.157E+04   0.331E-23 0.331E-23 0.312E+01
   0.867E-13 0.526E-12 -.158E+04   -.153E-11 -.319E-13 0.158E+04   0.000E+00 0.116E-22 -.455E+01
   0.354E-12 0.519E-11 -.158E+04   0.180E-11 -.338E-13 0.158E+04   0.000E+00 -.265E-22 -.455E+01
   0.125E-12 -.453E-12 -.517E+03   -.227E-12 -.121E-12 0.517E+03   0.331E-23 0.827E-24 0.269E+00
   0.268E-12 -.142E-11 -.517E+03   -.172E-12 -.285E-13 0.517E+03   -.331E-23 -.331E-23 0.269E+00
   0.414E-12 -.309E-12 0.519E+03   -.172E-11 -.343E-13 -.519E+03   -.827E-23 0.331E-23 -.905E-01
   -.110E-13 -.406E-12 0.519E+03   0.158E-11 0.142E-13 -.519E+03   -.141E-22 0.662E-23 -.905E-01
   0.442E-12 0.550E-12 0.157E+04   -.635E-13 -.622E-14 -.157E+04   0.000E+00 0.827E-24 0.312E+01
   -.200E-13 0.812E-13 0.157E+04   -.794E-13 0.201E-13 -.157E+04   0.165E-23 0.278E-23 0.312E+01
   0.428E-12 0.338E-14 -.158E+04   0.947E-12 -.838E-12 0.158E+04   0.000E+00 0.149E-22 -.455E+01
   -.321E-13 0.879E-13 -.158E+04   -.681E-12 0.810E-12 0.158E+04   0.331E-23 0.827E-23 -.455E+01
   0.435E-12 0.473E-11 -.517E+03   -.263E-12 -.426E-13 0.517E+03   0.414E-24 -.827E-24 0.269E+00
   -.149E-13 -.676E-14 -.517E+03   -.249E-12 -.346E-13 0.517E+03   -.496E-23 -.331E-23 0.269E+00
   0.418E-12 0.655E-11 0.519E+03   -.917E-12 -.803E-12 -.519E+03   0.620E-23 -.496E-23 -.905E-01
   -.145E-13 0.440E-13 0.519E+03   0.739E-12 0.874E-12 -.519E+03   -.149E-22 -.331E-23 -.905E-01
   0.446E-12 -.129E-11 0.157E+04   -.981E-13 0.195E-13 -.157E+04   -.414E-23 0.310E-24 0.312E+01
   -.780E-14 0.277E-12 0.157E+04   -.528E-13 0.586E-13 -.157E+04   -.414E-23 -.486E-23 0.312E+01
   0.424E-12 -.484E-12 -.158E+04   0.192E-12 0.214E-13 0.158E+04   0.269E-22 0.000E+00 -.455E+01
   -.385E-13 0.654E-12 -.158E+04   0.113E-12 0.711E-14 0.158E+04   0.331E-23 -.165E-22 -.455E+01
   0.451E-12 -.237E-13 -.517E+03   -.206E-12 -.711E-13 0.517E+03   -.496E-23 -.331E-23 0.269E+00
   -.113E-13 0.521E-12 -.517E+03   -.156E-12 -.144E-13 0.517E+03   -.331E-23 0.393E-23 0.269E+00
 -----------------------------------------------------------------------------------------------
   0.203E-10 0.108E-10 0.182E+02   0.302E-12 -.530E-13 -.728E-11   -.445E-21 -.368E-21 -.160E+02


 POSITION                                       TOTAL-FORCE (eV/Angst)
 -----------------------------------------------------------------------------------
      2.10122      0.00000      7.50000        -0.000000     -0.000000      0.405782
      4.20243      2.10122      7.50000        -0.000000      0.000000      0.405782
      2.10122      2.10122      9.60122         0.000000     -0.000000      0.038813
      4.20243      0.00000      9.60122         0.000000      0.000000      0.038813
      2.10122     -0.00000     11.71391        -0.000000      0.000000      0.001709
      4.20243      2.10122     11.71391        -0.000000     -0.000000      0.001709
      2.10122      2.10122     13.80052         0.000000     -0.000000      0.000971
      4.20243      0.00000     13.80052         0.000000      0.000000      0.000971
      2.10122      4.20243      7.50000        -0.000000      0.000000      0.405782
      4.20243      6.30365      7.50000         0.000000     -0.000000      0.405782
      2.10122      6.30365      9.60122         0.000000      0.000000      0.038813
      4.20243      4.20243      9.60122         0.000000     -0.000000      0.038813
      2.10122      4.20243     11.71391        -0.000000      0.000000      0.001709
      4.20243      6.30365     11.71391        -0.000000      0.000000      0.001709
      2.10122      6.30365     13.80052         0.000000      0.000000      0.000971
      4.20243      4.20243     13.80052         0.000000     -0.000000      0.000971
      6.30365      0.00000      7.50000        -0.000000     -0.000000      0.405782
      0.00000      2.10122      7.50000         0.000000      0.000000      0.405782
      6.30365      2.10122      9.60122        -0.000000     -0.000000      0.038813
      0.00000      0.00000      9.60122         0.000000     -0.000000      0.038813
      6.30365      0.00000     11.71391        -0.000000     -0.000000      0.001709
      0.00000      2.10122     11.71391        -0.000000      0.000000      0.001709
      6.30365      2.10122     13.80052        -0.000000     -0.000000      0.000971
     -0.00000     -0.00000     13.80052         0.000000      0.000000      0.000971
      6.30365      4.20243      7.50000        -0.000000      0.000000      0.405782
      0.00000      6.30365      7.50000        -0.000000     -0.000000      0.405782
      6.30365      6.30365      9.60122        -0.000000      0.000000      0.038813
      0.00000      4.20243      9.60122         0.000000      0.000000      0.038813
      6.30365      4.20243     11.71391        -0.000000      0.000000      0.001709
     -0.00000      6.30365     11.71391        -0.000000      0.000000      0.001709
      6.30365      6.30365     13.80052         0.000000      0.000000      0.000971
     -0.00000      4.20243     13.80052         0.000000     -0.000000      0.000971
      2.10122      0.00000      9.60122         0.000000      0.000000      0.052017
      4.20243      2.10122      9.60122         0.000000      0.000000      0.052017
      2.10122      2.10122      7.50000        -0.000000     -0.000000     -0.494205
      4.20243      0.00000      7.50000        -0.000000     -0.000000     -0.494205
      2.10122     -0.00000     13.84367        -0.000000      0.000000      0.000880
      4.20243      2.10122     13.84367         0.000000     -0.000000      0.000880
      2.10122      2.10122     11.70824         0.000000     -0.000000     -0.005968
      4.20243     -0.00000     11.70824        -0.000000      0.000000     -0.005968
      2.10122      4.20243      9.60122        -0.000000      0.000000      0.052017
      4.20243      6.30365      9.60122         0.000000     -0.000000      0.052017
      2.10122      6.30365      7.50000        -0.000000      0.000000     -0.494205
      4.20243      4.20243      7.50000        -0.000000     -0.000000     -0.494205
      2.10122      4.20243     13.84367        -0.000000      0.000000      0.000880
      4.20243      6.30365     13.84367         0.000000      0.000000      0.000880
      2.10122      6.30365     11.70824         0.000000     -0.000000     -0.005968
      4.20243      4.20243     11.70824        -0.000000     -0.000000     -0.005968
      6.30365      0.00000      9.60122        -0.000000      0.000000      0.052017
      0.00000      2.10122      9.60122         0.000000     -0.000000      0.052017
      6.30365      2.10122      7.50000        -0.000000     -0.000000     -0.494205
      0.00000      0.00000      7.50000        -0.000000     -0.000000     -0.494205
      6.30365     -0.00000     13.84367         0.000000     -0.000000      0.000880
      0.00000      2.10122     13.84367        -0.000000     -0.000000      0.000880
      6.30365      2.10122     11.70824        -0.000000     -0.000000     -0.005968
      0.00000     -0.00000     11.70824         0.000000     -0.000000     -0.005968
      6.30365      4.20243      9.60122        -0.000000      0.000000      0.052017
      0.00000      6.30365      9.60122         0.000000     -0.000000      0.052017
      6.30365      6.30365      7.50000        -0.000000      0.000000     -0.494205
      0.00000      4.20243      7.50000        -0.000000     -0.000000     -0.494205
      6.30365      4.20243     13.84367        -0.000000     -0.000000      0.000880
     -0.00000      6.30365     13.84367        -0.000000      0.000000      0.000880
      6.30365      6.30365     11.70824        -0.000000     -0.000000     -0.005968
     -0.00000      4.20243     11.70824        -0.000000      0.000000     -0.005968
 -----------------------------------------------------------------------------------
    total drift:                                0.000000      0.000000     -0.011050


--------------------------------------------------------------------------------------------------------



  FREE ENERGIE OF THE ION-ELECTRON SYSTEM (eV)
  ---------------------------------------------------
  free  energy   TOTEN  =      -438.72314604 eV

  energy  without entropy=     -438.72314604  energy(sigma->0) =     -438.72314604

 d Force = 0.1622923E-03[-0.145E-04, 0.339E-03]  d Energy = 0.1461456E-03 0.161E-04
 d Force = 0.5908351E+02[ 0.591E+02, 0.591E+02]  d Ewald  = 0.5908351E+02 0.352E-06


--------------------------------------------------------------------------------------------------------


    POTLOK:  cpu time      0.7836: real time      0.7837


--------------------------------------------------------------------------------------------------------




--------------------------------------------------------------------------------------------------------


  
 reached required accuracy - stopping structural energy minimisation
     LOOP+:  cpu time    983.6517: real time    983.8543
    4ORBIT:  cpu time      0.0000: real time      0.0000

 total amount of memory used by VASP MPI-rank0   298957. kBytes
=======================================================================

   base      :      30000. kBytes
   nonl-proj :      10547. kBytes
   fftplans  :       8340. kBytes
   grid      :       7379. kBytes
   one-center:         64. kBytes
   HF        :         67. kBytes
   nonlr-proj:     118635. kBytes
   wavefun   :       1914. kBytes
   fock_wrk  :     122011. kBytes

  
  
 General timing and accounting informations for this job:
 ========================================================
  
                  Total CPU time used (sec):    13200.464
                            User time (sec):    13168.713
                          System time (sec):       31.750
                         Elapsed time (sec):    13268.711
  
                   Maximum memory used (kb):      479404.
                   Average memory used (kb):          N/A
  
                          Minor page faults:      1246634
                          Major page faults:           52
                 Voluntary context switches:        55701
