 **********************************************************************
                          MRCC program system
 **********************************************************************
 
                              Written by
     Mihaly Kallay, Peter R. Nagy, David Mester, Laszlo Gyevi-Nagy,
        Jozsef Csoka, P. Bernat Szabo, Zoltan Rolik, Gyula Samu,
     Jozsef Csontos, Bence Hegely, Adam Ganyecz, Istvan Ladjanszki,
       Lorant Szegedy, Bence Ladoczki, Klara Petrov, Mate Farkas,
                    Pal D. Mezei, and Reka A. Horvath
 
        Department of Physical Chemistry and Materials Science
            Budapest University of Technology and Economics
                  Budapest P.O.Box 91, H-1521 Hungary
 
                              www.mrcc.hu
 
                      Release date: March 18, 2022

 ************************ 2023-05-25 16:44:39 *************************
 Executing minp...

 Reading input from MINP...
 
 Input file:
 
calc=DF-CCSD(T)
scftype=rhf
verbosity=3
mem=160GB
symm=off
unit=angs
scfiguess=small
scfmaxit=1000
scfalg=locfit1




    charge=0
core=2

basis=special
aug-cc-pVTZ
aug-cc-pVTZ
bse_CVTZ
aug-cc-pVTZ
aug-cc-pVTZ
aug-cc-pVTZ
aug-cc-pVTZ
aug-cc-pVTZ

basis_sm=special
def2-SVP
def2-SVP
def2-SVP
def2-SVP
def2-SVP
def2-SVP
def2-SVP
def2-SVP

dfbasis_scf=special
def2-QZVPP-RI-JK
def2-QZVPP-RI-JK
def2-QZVPP-RI-JK
def2-QZVPP-RI-JK
def2-QZVPP-RI-JK
def2-QZVPP-RI-JK
def2-QZVPP-RI-JK
def2-QZVPP-RI-JK

dfbasis_cor=special
aug-cc-pVTZ-RI
aug-cc-pVTZ-RI
bse_CVTZ_mp2fit
aug-cc-pVTZ-RI
aug-cc-pVTZ-RI
aug-cc-pVTZ-RI
aug-cc-pVTZ-RI
aug-cc-pVTZ-RI

ecp=special
none
none
none
none
none
none
none
none

unit=angs
geom=xyz
8
C1 O1 Mg1 O5 ECP25
C     0.00000000000    0.00000000000    2.52227197734
O     0.00000000000    0.00000000000    3.66909179200
Mg    0.00000000000    0.00000000000   -0.00772802266
O    -2.12018425659    0.00000000000   -0.00205593177
O     0.00000000000    2.12018425659   -0.00205593177
O     2.12018425659    0.00000000000   -0.00205593177
O     0.00000000000   -2.12018425659   -0.00205593177
O     0.00000000000    0.00000000000   -2.14902768389

ghost=serialno
3-8

 
 
 Checking keyword combinations...
 
 Keywords:
 
 active=none
 agrid=ld0006-ld0590
 agrid_pssp=ld0006-ld0194
 agrid_pssp_sm=ld0006-ld0074
 basis=special
 basis_sm=special
 basopt=off
 bfbasis=none
 bfgsmem=10
 bfgstol=1.0d-3
 bpcompo=0.985
 bpcompv=0.98
 bpdfo=0.985
 bpocc=0.985
 bppdo=0.985
 bppdv=0.98
 bpedo=0.985
 bpedv=0.98
 calc=ccsd(t)
 ccmaxit=50
 ccprog=ccsd
 ccsdalg=dfdirect
 ccsdmkl=seq
 ccsdrest=trf
 ccsdthreads=2
 cctol=6
 charge=0
 cialg=auto
 ciguess=off
 cmpgrp=auto
 comprest=off
 core=2
 corembed=off
 csapprox=off
 cvs=off
 dboc=off
 delocsomofact=
 dendec=cholesky
 dens=0
 dfalg=lineq
 dfbasis_cab=none
 dfbasis_cor=special
 dfbasis_scf=special
 dfbasis_scf_sm=special
 dfintran=drpa
 dft=off
 dhexc=adc(2)
 diag=david
 docc=
 domrad=10.d0
 drpaalg=fit
 dual=off
 dual_df=off
 ecp=special
 edisp=off
 edisp_embed=off
 embed=off
 etemp=300
 epert=none
 eps=
 espcharge=off
 excrad=1.0
 excrad_fin=0.100000000D-02
 fitting=coulomb
 fmm=off
 fmmord=8
 freq=off
 gamma=1.d0
 gauss=spher
 geom=xyz
 gopt=off
 ghost=serialno
 gtol=7
 grdens=off
 gridbatch_cos=2000
 grtol=10
 guido_ct=off
 hamilton=dc
 iface=none
 intalg=auto
 itol=10
 laptol=1.d-2
 lccoporder=trffirst
 lcorthr=normal
 lccrest=off
 lmp2dens=on
 lnoepso=0.d0
 lnoepsv=5e-5
 boysalg=jacobi
 localcc=off
 localcorrsymm=off
 locintrf=disk
 mact=
 maxact=off
 maxdim=100
 maxex=0
 maxmicroit=100
 mcscfiguess=hf
 mem=160gb
 mmprog=
 molden=on
 mpitasks=1
 mulmet=0
 mult=
 nacto=0
 nactv=0
 naf_amp=1.d-2
 naf_cor=off
 naf_scf=off
 nafalg=albe
 naftyp=
 nchol=auto
 ndeps=1e-3
 nstate=1
 nsing=0
 nto=off
 ntrip=0
 occ=
 occri=off
 oniom=off
 oniom_eechg=off
 oniom_pcm=off
 oniom_qcorr=off
 optalg=
 optmaxit=50
 optetol=1e-6
 optex=0
 optgtol=1e-4
 optstol=1e-3
 orblocc=off
 orbloce=off
 orbloco=off
 orblocv=off
 orblocguess=cholesky
 osveps=1e-3
 ovirt=off
 ovltol=1e-7
 ovosnorb=80.0
 pcm=off
 popul=off
 pressure=100000
 pssp=off
 ptfreq=0.0
 ptthreads=2
 qro=off
 qscf=off
 qmmm=off
 redcost_exc=off
 redcost_tddft=off
 refdet=none
 rest=0
 rgrid=log3
 rism=off
 rohfcore=semicanonical
 rohftype=semicanonical
 scfalg=locfit1
 scf_conv=auto
 scfdamp=0.0d0
 scfdamp_mode=off
 scfdamp_end=1000
 scfdamp_dampstep=0.d0
 scfdamp_dtol=0.0d0
 scfdamp_maxfact=0.0d0
 scfdamp_minfact=0.0d0
 scfdiis=on
 scfdiis_dtol=0.0d0
 scfdiis_end=1000
 scfdiis_start=2
 scfdiis_step=1
 scfdiis_watch=off
 scfdiis_wrange=10
 scfdiis_wlimit=5
 scfdiis_delmax=2
 scfdtol=7
 scfext=10
 scfguessdens=
 scfiguess=small
 scfloc=pm
 scflshift=0.20
 scflshift_end=8
 scflshift_dtol=0.0
 scflshift_gaptol=0.20
 scfmaxit=1000
 scftype=rhf
 scftol=6
 scspe=1.d0
 scsph=1.d0
 scsps=1.2d0
 scsps_t=1.2d0
 scspt=0.33333333333333
 scspt_t=0.33333333333333
 scspv=1.d0
 spairtol=1e-4
 sqmprog=
 subminp=top
 symm=0
 talg=occ
 temp=298.15
 test=off
 theodore=off
 tlmo=0.999
 tpao=0.94
 tprint=off
 uncontract=off
 unit=angs
 usedisk=2
 verbosity=3
 wpairtol=0.100000000E-05
 
 Calculating integrals for small-basis SCF...

 ************************ 2023-05-25 16:44:48 *************************
 Executing integ...

 Allocation of 160.0 Gbytes of memory...
 
 
 Number of atoms:                  8
 Charge:                           0
 Number of electrons:             14
 Number of core electrons:         4
 Spin multiplicity:                1
 
                 Cartesian coordinates [bohr]      Atomic mass [AMU]  Z
   1  C     0.00000000    0.00000000    4.76640325    12.000000       6
   2  O     0.00000000    0.00000000    6.93357862    15.994915       8
   3  Mg    0.00000000    0.00000000   -0.01460385     0.000000       0
   4  O    -4.00656758    0.00000000   -0.00388515     0.000000       0
   5  O     0.00000000    4.00656758   -0.00388515     0.000000       0
   6  O     4.00656758    0.00000000   -0.00388515     0.000000       0
   7  O     0.00000000   -4.00656758   -0.00388515     0.000000       0
   8  O     0.00000000    0.00000000   -4.06107376     0.000000       0
 
 This molecule is a prolate symmetric top.
 
 Point group: C4v 
 Computational point group: C1  
 
 Cartesian coordinates in standard orientation [bohr]
   1  C     0.00000000    0.00000000    0.55854670
   2  O     0.00000000    0.00000000    2.72572206
   3  Mg    0.00000000    0.00000000   -4.22246040
   4  O     4.00656758   -0.00000000   -4.21174170
   5  O    -0.00000000   -4.00656758   -4.21174170
   6  O    -4.00656758    0.00000000   -4.21174170
   7  O     0.00000000    4.00656758   -4.21174170
   8  O     0.00000000    0.00000000   -8.26893031
 
 Nuclear repulsion energy [au]:         22.148646010002
 
 
 Basis set information:
 
 Maximum angular momentum: g
 Maximum number of contracted Gaussians:   13
 Maximum number of primitive Gaussians:    16
 Spherical harmonic GTOs are used.
 
 
 Conventional basis set:
 
   1  C  def2-svp [ 7s 4p 1d | 3s 2p 1d ]
   2  O  def2-svp [ 7s 4p 1d | 3s 2p 1d ]
   3  Mg def2-svp [ 10s 7p 1d | 4s 3p 1d ]
   4  O  def2-svp [ 7s 4p 1d | 3s 2p 1d ]
   5  O  def2-svp [ 7s 4p 1d | 3s 2p 1d ]
   6  O  def2-svp [ 7s 4p 1d | 3s 2p 1d ]
   7  O  def2-svp [ 7s 4p 1d | 3s 2p 1d ]
   8  O  def2-svp [ 7s 4p 1d | 3s 2p 1d ]
 
 Basis functions:
            1             2             3             4             5             6             7             8             9            10
    0    1C1s          1C2s          1C3s          1C1pz         1C1py         1C1px         1C2pz         1C2py         1C2px         1C1d-2    
    1    1C1d-1        1C1d0         1C1d+1        1C1d+2        2O1s          2O2s          2O3s          2O1pz         2O1py         2O1px     
    2    2O2pz         2O2py         2O2px         2O1d-2        2O1d-1        2O1d0         2O1d+1        2O1d+2        3Mg1s         3Mg2s     
    3    3Mg3s         3Mg4s         3Mg1pz        3Mg1py        3Mg1px        3Mg2pz        3Mg2py        3Mg2px        3Mg3pz        3Mg3py    
    4    3Mg3px        3Mg1d-2       3Mg1d-1       3Mg1d0        3Mg1d+1       3Mg1d+2       4O1s          4O2s          4O3s          4O1pz     
    5    4O1py         4O1px         4O2pz         4O2py         4O2px         4O1d-2        4O1d-1        4O1d0         4O1d+1        4O1d+2    
    6    5O1s          5O2s          5O3s          5O1pz         5O1py         5O1px         5O2pz         5O2py         5O2px         5O1d-2    
    7    5O1d-1        5O1d0         5O1d+1        5O1d+2        6O1s          6O2s          6O3s          6O1pz         6O1py         6O1px     
    8    6O2pz         6O2py         6O2px         6O1d-2        6O1d-1        6O1d0         6O1d+1        6O1d+2        7O1s          7O2s      
    9    7O3s          7O1pz         7O1py         7O1px         7O2pz         7O2py         7O2px         7O1d-2        7O1d-1        7O1d0     
   10    7O1d+1        7O1d+2        8O1s          8O2s          8O3s          8O1pz         8O1py         8O1px         8O2pz         8O2py     
   11    8O2px         8O1d-2        8O1d-1        8O1d0         8O1d+1        8O1d+2    
 
 Maximum number of basis functions per shell:    9
 Total number of basis functions:    116
 
 
 Fitting basis set for the SCF calculation:
 
   1  C  def2-qzvpp-ri-jk [ 14s 10p 6d 2f 1g | 10s 8p 5d 1f 1g ]
   2  O  def2-qzvpp-ri-jk [ 14s 10p 6d 2f 1g | 10s 8p 4d 2f 1g ]
   3  Mg def2-qzvpp-ri-jk [ 16s 12p 9d 4f 1g | 13s 9p 7d 4f 1g ]
   4  O  def2-qzvpp-ri-jk [ 14s 10p 6d 2f 1g | 10s 8p 4d 2f 1g ]
   5  O  def2-qzvpp-ri-jk [ 14s 10p 6d 2f 1g | 10s 8p 4d 2f 1g ]
   6  O  def2-qzvpp-ri-jk [ 14s 10p 6d 2f 1g | 10s 8p 4d 2f 1g ]
   7  O  def2-qzvpp-ri-jk [ 14s 10p 6d 2f 1g | 10s 8p 4d 2f 1g ]
   8  O  def2-qzvpp-ri-jk [ 14s 10p 6d 2f 1g | 10s 8p 4d 2f 1g ]
 
 Basis functions:
            1             2             3             4             5             6             7             8             9            10
    0    1C1s          1C2s          1C3s          1C4s          1C5s          1C6s          1C7s          1C8s          1C9s          1C10s     
    1    1C1pz         1C1py         1C1px         1C2pz         1C2py         1C2px         1C3pz         1C3py         1C3px         1C4pz     
    2    1C4py         1C4px         1C5pz         1C5py         1C5px         1C6pz         1C6py         1C6px         1C7pz         1C7py     
    3    1C7px         1C8pz         1C8py         1C8px         1C1d-2        1C1d-1        1C1d0         1C1d+1        1C1d+2        1C2d-2    
    4    1C2d-1        1C2d0         1C2d+1        1C2d+2        1C3d-2        1C3d-1        1C3d0         1C3d+1        1C3d+2        1C4d-2    
    5    1C4d-1        1C4d0         1C4d+1        1C4d+2        1C5d-2        1C5d-1        1C5d0         1C5d+1        1C5d+2        1C1f-3    
    6    1C1f-2        1C1f-1        1C1f0         1C1f+1        1C1f+2        1C1f+3        1C1g-4        1C1g-3        1C1g-2        1C1g-1    
    7    1C1g0         1C1g+1        1C1g+2        1C1g+3        1C1g+4        2O1s          2O2s          2O3s          2O4s          2O5s      
    8    2O6s          2O7s          2O8s          2O9s          2O10s         2O1pz         2O1py         2O1px         2O2pz         2O2py     
    9    2O2px         2O3pz         2O3py         2O3px         2O4pz         2O4py         2O4px         2O5pz         2O5py         2O5px     
   10    2O6pz         2O6py         2O6px         2O7pz         2O7py         2O7px         2O8pz         2O8py         2O8px         2O1d-2    
   11    2O1d-1        2O1d0         2O1d+1        2O1d+2        2O2d-2        2O2d-1        2O2d0         2O2d+1        2O2d+2        2O3d-2    
   12    2O3d-1        2O3d0         2O3d+1        2O3d+2        2O4d-2        2O4d-1        2O4d0         2O4d+1        2O4d+2        2O1f-3    
   13    2O1f-2        2O1f-1        2O1f0         2O1f+1        2O1f+2        2O1f+3        2O2f-3        2O2f-2        2O2f-1        2O2f0     
   14    2O2f+1        2O2f+2        2O2f+3        2O1g-4        2O1g-3        2O1g-2        2O1g-1        2O1g0         2O1g+1        2O1g+2    
   15    2O1g+3        2O1g+4        3Mg1s         3Mg2s         3Mg3s         3Mg4s         3Mg5s         3Mg6s         3Mg7s         3Mg8s     
   16    3Mg9s         3Mg10s        3Mg11s        3Mg12s        3Mg13s        3Mg1pz        3Mg1py        3Mg1px        3Mg2pz        3Mg2py    
   17    3Mg2px        3Mg3pz        3Mg3py        3Mg3px        3Mg4pz        3Mg4py        3Mg4px        3Mg5pz        3Mg5py        3Mg5px    
   18    3Mg6pz        3Mg6py        3Mg6px        3Mg7pz        3Mg7py        3Mg7px        3Mg8pz        3Mg8py        3Mg8px        3Mg9pz    
   19    3Mg9py        3Mg9px        3Mg1d-2       3Mg1d-1       3Mg1d0        3Mg1d+1       3Mg1d+2       3Mg2d-2       3Mg2d-1       3Mg2d0    
   20    3Mg2d+1       3Mg2d+2       3Mg3d-2       3Mg3d-1       3Mg3d0        3Mg3d+1       3Mg3d+2       3Mg4d-2       3Mg4d-1       3Mg4d0    
   21    3Mg4d+1       3Mg4d+2       3Mg5d-2       3Mg5d-1       3Mg5d0        3Mg5d+1       3Mg5d+2       3Mg6d-2       3Mg6d-1       3Mg6d0    
   22    3Mg6d+1       3Mg6d+2       3Mg7d-2       3Mg7d-1       3Mg7d0        3Mg7d+1       3Mg7d+2       3Mg1f-3       3Mg1f-2       3Mg1f-1   
   23    3Mg1f0        3Mg1f+1       3Mg1f+2       3Mg1f+3       3Mg2f-3       3Mg2f-2       3Mg2f-1       3Mg2f0        3Mg2f+1       3Mg2f+2   
   24    3Mg2f+3       3Mg3f-3       3Mg3f-2       3Mg3f-1       3Mg3f0        3Mg3f+1       3Mg3f+2       3Mg3f+3       3Mg4f-3       3Mg4f-2   
   25    3Mg4f-1       3Mg4f0        3Mg4f+1       3Mg4f+2       3Mg4f+3       3Mg1g-4       3Mg1g-3       3Mg1g-2       3Mg1g-1       3Mg1g0    
   26    3Mg1g+1       3Mg1g+2       3Mg1g+3       3Mg1g+4       4O1s          4O2s          4O3s          4O4s          4O5s          4O6s      
   27    4O7s          4O8s          4O9s          4O10s         4O1pz         4O1py         4O1px         4O2pz         4O2py         4O2px     
   28    4O3pz         4O3py         4O3px         4O4pz         4O4py         4O4px         4O5pz         4O5py         4O5px         4O6pz     
   29    4O6py         4O6px         4O7pz         4O7py         4O7px         4O8pz         4O8py         4O8px         4O1d-2        4O1d-1    
   30    4O1d0         4O1d+1        4O1d+2        4O2d-2        4O2d-1        4O2d0         4O2d+1        4O2d+2        4O3d-2        4O3d-1    
   31    4O3d0         4O3d+1        4O3d+2        4O4d-2        4O4d-1        4O4d0         4O4d+1        4O4d+2        4O1f-3        4O1f-2    
   32    4O1f-1        4O1f0         4O1f+1        4O1f+2        4O1f+3        4O2f-3        4O2f-2        4O2f-1        4O2f0         4O2f+1    
   33    4O2f+2        4O2f+3        4O1g-4        4O1g-3        4O1g-2        4O1g-1        4O1g0         4O1g+1        4O1g+2        4O1g+3    
   34    4O1g+4        5O1s          5O2s          5O3s          5O4s          5O5s          5O6s          5O7s          5O8s          5O9s      
   35    5O10s         5O1pz         5O1py         5O1px         5O2pz         5O2py         5O2px         5O3pz         5O3py         5O3px     
   36    5O4pz         5O4py         5O4px         5O5pz         5O5py         5O5px         5O6pz         5O6py         5O6px         5O7pz     
   37    5O7py         5O7px         5O8pz         5O8py         5O8px         5O1d-2        5O1d-1        5O1d0         5O1d+1        5O1d+2    
   38    5O2d-2        5O2d-1        5O2d0         5O2d+1        5O2d+2        5O3d-2        5O3d-1        5O3d0         5O3d+1        5O3d+2    
   39    5O4d-2        5O4d-1        5O4d0         5O4d+1        5O4d+2        5O1f-3        5O1f-2        5O1f-1        5O1f0         5O1f+1    
   40    5O1f+2        5O1f+3        5O2f-3        5O2f-2        5O2f-1        5O2f0         5O2f+1        5O2f+2        5O2f+3        5O1g-4    
   41    5O1g-3        5O1g-2        5O1g-1        5O1g0         5O1g+1        5O1g+2        5O1g+3        5O1g+4        6O1s          6O2s      
   42    6O3s          6O4s          6O5s          6O6s          6O7s          6O8s          6O9s          6O10s         6O1pz         6O1py     
   43    6O1px         6O2pz         6O2py         6O2px         6O3pz         6O3py         6O3px         6O4pz         6O4py         6O4px     
   44    6O5pz         6O5py         6O5px         6O6pz         6O6py         6O6px         6O7pz         6O7py         6O7px         6O8pz     
   45    6O8py         6O8px         6O1d-2        6O1d-1        6O1d0         6O1d+1        6O1d+2        6O2d-2        6O2d-1        6O2d0     
   46    6O2d+1        6O2d+2        6O3d-2        6O3d-1        6O3d0         6O3d+1        6O3d+2        6O4d-2        6O4d-1        6O4d0     
   47    6O4d+1        6O4d+2        6O1f-3        6O1f-2        6O1f-1        6O1f0         6O1f+1        6O1f+2        6O1f+3        6O2f-3    
   48    6O2f-2        6O2f-1        6O2f0         6O2f+1        6O2f+2        6O2f+3        6O1g-4        6O1g-3        6O1g-2        6O1g-1    
   49    6O1g0         6O1g+1        6O1g+2        6O1g+3        6O1g+4        7O1s          7O2s          7O3s          7O4s          7O5s      
   50    7O6s          7O7s          7O8s          7O9s          7O10s         7O1pz         7O1py         7O1px         7O2pz         7O2py     
   51    7O2px         7O3pz         7O3py         7O3px         7O4pz         7O4py         7O4px         7O5pz         7O5py         7O5px     
   52    7O6pz         7O6py         7O6px         7O7pz         7O7py         7O7px         7O8pz         7O8py         7O8px         7O1d-2    
   53    7O1d-1        7O1d0         7O1d+1        7O1d+2        7O2d-2        7O2d-1        7O2d0         7O2d+1        7O2d+2        7O3d-2    
   54    7O3d-1        7O3d0         7O3d+1        7O3d+2        7O4d-2        7O4d-1        7O4d0         7O4d+1        7O4d+2        7O1f-3    
   55    7O1f-2        7O1f-1        7O1f0         7O1f+1        7O1f+2        7O1f+3        7O2f-3        7O2f-2        7O2f-1        7O2f0     
   56    7O2f+1        7O2f+2        7O2f+3        7O1g-4        7O1g-3        7O1g-2        7O1g-1        7O1g0         7O1g+1        7O1g+2    
   57    7O1g+3        7O1g+4        8O1s          8O2s          8O3s          8O4s          8O5s          8O6s          8O7s          8O8s      
   58    8O9s          8O10s         8O1pz         8O1py         8O1px         8O2pz         8O2py         8O2px         8O3pz         8O3py     
   59    8O3px         8O4pz         8O4py         8O4px         8O5pz         8O5py         8O5px         8O6pz         8O6py         8O6px     
   60    8O7pz         8O7py         8O7px         8O8pz         8O8py         8O8px         8O1d-2        8O1d-1        8O1d0         8O1d+1    
   61    8O1d+2        8O2d-2        8O2d-1        8O2d0         8O2d+1        8O2d+2        8O3d-2        8O3d-1        8O3d0         8O3d+1    
   62    8O3d+2        8O4d-2        8O4d-1        8O4d0         8O4d+1        8O4d+2        8O1f-3        8O1f-2        8O1f-1        8O1f0     
   63    8O1f+1        8O1f+2        8O1f+3        8O2f-3        8O2f-2        8O2f-1        8O2f0         8O2f+1        8O2f+2        8O2f+3    
   64    8O1g-4        8O1g-3        8O1g-2        8O1g-1        8O1g0         8O1g+1        8O1g+2        8O1g+3        8O1g+4    
 
 Maximum number of basis functions per shell:   35
 Total number of basis functions:    649
 
 
 Initializing the SAD routines for the initial guess...
 Checking the files required for the initial guess...
 Atomic density files have been found for the atoms with the following serial numbers:
  1 2
 Atomic density files have not been found for the atoms with the following serial numbers:
  
 CPU time [min]:     0.119                   Wall time [min]:     2.415
 
 Character table for point group C1:
 
          E  
    A     1
 
 Number of basis functions per irrep:
    A     116
 
 
 Calculation of overlap integrals...
 CPU time [min]:     0.230                   Wall time [min]:     2.447
 
 Calculation of the square root of the overlap matrix...
 Minimum eigenvalue of the overlap matrix: 0.126040E-01
 CPU time [min]:     1.083                   Wall time [min]:     2.704
 
 Calculation of kinetic energy integrals...
 CPU time [min]:     1.174                   Wall time [min]:     2.757
 Calculation of dipole moment integrals...
 CPU time [min]:     1.446                   Wall time [min]:     2.780
 Calculation of nuclear attraction integrals...
 CPU time [min]:     1.536                   Wall time [min]:     2.783
 
 Calculation of prescreening integrals...
 CPU time [min]:     1.574                   Wall time [min]:     2.790
 
 Calculation of two-center Coulomb integrals...
   1% done.
  12% done.
  24% done.
  37% done.
  49% done.
  61% done.
  72% done.
  87% done.
 100% done.
 CPU time [min]:     2.374                   Wall time [min]:     3.016
 
 Cholesky decomposition of the two-center matrix...
 Reciprocal of the condition number:  0.551886E-05
 CPU time [min]:     2.606                   Wall time [min]:     3.097
 
 
 Running small-basis SCF...

 ************************ 2023-05-25 16:47:54 *************************
 Executing scf...

 @scfsetup: integrals calculated directly
            mrcc/integ direct run
 @scfsetup: calculating on full matrices
            not using symmetry adapted basis
 @scfsetup: diis switched on
 @scfsetup: number of steps to extrapolate from  10
 @scfsetup: tolerance in energy deviation    0.100000E-05
            tolerance in density deviation    0.100000E-06
 @scfsetup: maximum number of iterations:1000
 @scfsetup: restricted closed shell hf calc
 @scfsetup: starting scf from superposition of atomic densities
 @scfsetup: occupation set:
            from initial orbitals
 @scfsetup: Parameter-set for SCF acceleration: normal
 @scfsetup: diis runs from iteration:   2
 @scfsetup: diis runs to iteration:1000
 @scfsetup: diis runs in every iteration
 @scfsetup: diiswatch is disabled                   
 @scfsetup: diis dtol criteria to switch on:      0.0000E+00
           (or the iteration number below is reached)
 @scfsetup: static damping scheme
            iteration step criteria to turn damping off: 3
 @scfsetup: dynamic level shifting
            tolarance in HOMO-LUMO gap:  0.200
            tolarance in density deviation:     0.0000E+00
            iteration step criteria to turn level shifting off: 8
 Allocation of 160.0 Gbytes of memory...
 ======================================================================
 ITERATION STEP   1
 CPU time [min]:     0.239                   Wall time [min]:     0.461
 

 SCF control                  : initial
 Damping factor/level shift   : 0.000/0.200
 DIIS [start/end/frequency]   :   2 /*** /  1

 Constructing Fock-matrix...
 
 Pipek-Mezey localization...
 Step  Convergence
   1   0.888658391570
   2   0.376862650984
   3   0.006692941076
   4   0.000002704095
   5   0.000000000065
 CPU time [min]:     0.335                   Wall time [min]:     0.501
 
 Constructing local fitting domains...
 Maximum number of atoms in fitting domains:    8
 Average number of atoms in fitting domains:    3.7
 
 First step of Coulomb + first step of exchange...
 Exchange contribution is evaluated for MOs 1 to 7.
   1% done.
  13% done.
  27% done.
  41% done.
  58% done.
  70% done.
  82% done.
 100% done.
 Fitting and assembly step of exchange...
 CPU time [min]:     1.194                   Wall time [min]:     0.710
 
 Second step of Coulomb...
   1% done.
  13% done.
  27% done.
  41% done.
  58% done.
  70% done.
  82% done.
 100% done.
 CPU time [min]:     1.215                   Wall time [min]:     0.711
 
 Gradient norm:      1.6037E+00
 RMS of [F,P]:                                         0.01819346640174
 RMS of difference density:                            0.00779274164021
 Gap [au]:  0.64060068
 ALPHA OCC:   7
 BETA  OCC:   7
 
 ***HARTREE-FOCK ENERGY IN STEP   1 IS       -112.4048870527556687 [AU]
 ======================================================================
 ITERATION STEP   2
 CPU time [min]:     1.347                   Wall time [min]:     0.718
 

 SCF control                  : diis
 Damping factor/level shift   : 0.000/0.000
 DIIS [start/end/frequency]   :   2 /*** /  1

 Constructing Fock-matrix...
 
 Pipek-Mezey localization...
 Step  Convergence
   1   0.061629578704
   2   0.049048101962
   3   0.000393375638
   4   0.000000130721
 CPU time [min]:     1.393                   Wall time [min]:     0.719
 
 Constructing local fitting domains...
 Maximum number of atoms in fitting domains:    8
 Average number of atoms in fitting domains:    3.7
 
 First step of Coulomb + first step of exchange...
 Exchange contribution is evaluated for MOs 1 to 7.
   1% done.
  13% done.
  27% done.
  41% done.
  58% done.
  70% done.
  82% done.
 100% done.
 Fitting and assembly step of exchange...
 CPU time [min]:     1.461                   Wall time [min]:     0.721
 
 Second step of Coulomb...
   1% done.
  13% done.
  27% done.
  41% done.
  58% done.
  70% done.
  82% done.
 100% done.
 CPU time [min]:     1.482                   Wall time [min]:     0.722
 
 Gradient norm:      1.1693E-01
 DIIS is running in this iteration step.
 RMS of [F,P]:                                         0.00226204859148
 RMS of difference density:                            0.00202657874855
 Gap [au]:  0.58940166
 ALPHA OCC:   7
 BETA  OCC:   7
 
 ***HARTREE-FOCK ENERGY IN STEP   2 IS       -112.6341175533548977 [AU]
 
 Step comparison  Energy Drift [au]  DIIS error drift  Gradient drift
        1            2.2923E-01         1.5931E-02       1.4867E+00
        2            1.1263E+02         1.0000E-07       1.4867E+00
 ======================================================================
 ITERATION STEP   3
 CPU time [min]:     1.492                   Wall time [min]:     0.722
 

 SCF control                  : diis
 Damping factor/level shift   : 0.000/0.000
 DIIS [start/end/frequency]   :   2 /*** /  1

 Constructing Fock-matrix...
 
 Pipek-Mezey localization...
 Step  Convergence
   1   0.573869024079
   2   0.082081540084
   3   0.002760633724
   4   0.000015160840
   5   0.000000001775
 CPU time [min]:     1.511                   Wall time [min]:     0.723
 
 Constructing local fitting domains...
 Local fitting domains are unchanged.
 
 First step of Coulomb + first step of exchange...
 Exchange contribution is evaluated for MOs 1 to 7.
   1% done.
  13% done.
  27% done.
  41% done.
  58% done.
  70% done.
  82% done.
 100% done.
 Fitting and assembly step of exchange...
 CPU time [min]:     1.579                   Wall time [min]:     0.725
 
 Second step of Coulomb...
   1% done.
  13% done.
  27% done.
  41% done.
  58% done.
  70% done.
  82% done.
 100% done.
 CPU time [min]:     1.599                   Wall time [min]:     0.725
 
 Gradient norm:      3.4878E-02
 DIIS is running in this iteration step.
 RMS of [F,P]:                                         0.00054042059128
 RMS of difference density:                            0.00046166090219
 Gap [au]:  0.60936633
 ALPHA OCC:   7
 BETA  OCC:   7
 
 ***HARTREE-FOCK ENERGY IN STEP   3 IS       -112.6428597887693854 [AU]
 
 Step comparison  Energy Drift [au]  DIIS error drift  Gradient drift
        2            8.7422E-03         1.7216E-03       8.2055E-02
 ======================================================================
 ITERATION STEP   4
 CPU time [min]:     1.625                   Wall time [min]:     0.726
 

 SCF control                  : diis
 Damping factor/level shift   : 0.000/0.000
 DIIS [start/end/frequency]   :   2 /*** /  1

 Constructing Fock-matrix...
 
 Pipek-Mezey localization...
 Step  Convergence
   1   0.244312296050
   2   0.103702722622
   3   0.015105194327
   4   0.000001038334
   5   0.000000000197
   6   0.000000000000
 CPU time [min]:     1.644                   Wall time [min]:     0.726
 
 Constructing local fitting domains...
 Local fitting domains are unchanged.
 
 First step of Coulomb + first step of exchange...
 Exchange contribution is evaluated for MOs 1 to 7.
   1% done.
  13% done.
  27% done.
  41% done.
  58% done.
  70% done.
  82% done.
 100% done.
 Fitting and assembly step of exchange...
 CPU time [min]:     1.712                   Wall time [min]:     0.728
 
 Second step of Coulomb...
   1% done.
  13% done.
  27% done.
  41% done.
  58% done.
  70% done.
  82% done.
 100% done.
 CPU time [min]:     1.732                   Wall time [min]:     0.729
 
 Gradient norm:      7.4172E-03
 DIIS is running in this iteration step.
 RMS of [F,P]:                                         0.00016228207769
 RMS of difference density:                            0.00022401330118
 Gap [au]:  0.60891660
 ALPHA OCC:   7
 BETA  OCC:   7
 
 ***HARTREE-FOCK ENERGY IN STEP   4 IS       -112.6435156846787606 [AU]
 
 Step comparison  Energy Drift [au]  DIIS error drift  Gradient drift
        3            6.5590E-04         3.7814E-04       2.7461E-02
 ======================================================================
 ITERATION STEP   5
 CPU time [min]:     1.741                   Wall time [min]:     0.729
 

 SCF control                  : diis
 Damping factor/level shift   : 0.000/0.000
 DIIS [start/end/frequency]   :   2 /*** /  1

 Constructing Fock-matrix...
 
 Pipek-Mezey localization...
 Step  Convergence
   1   0.587726078832
   2   0.591156288091
   3   0.013123892829
   4   0.000408053872
   5   0.000000000503
   6   0.000000000000
 CPU time [min]:     1.761                   Wall time [min]:     0.730
 
 Constructing local fitting domains...
 Local fitting domains are unchanged.
 
 First step of Coulomb + first step of exchange...
 Exchange contribution is evaluated for MOs 1 to 7.
   1% done.
  13% done.
  27% done.
  41% done.
  58% done.
  70% done.
  82% done.
 100% done.
 Fitting and assembly step of exchange...
 CPU time [min]:     1.828                   Wall time [min]:     0.732
 
 Second step of Coulomb...
   1% done.
  13% done.
  27% done.
  41% done.
  58% done.
  70% done.
  82% done.
 100% done.
 CPU time [min]:     1.848                   Wall time [min]:     0.732
 
 Gradient norm:      5.8277E-03
 DIIS is running in this iteration step.
 RMS of [F,P]:                                         0.00009845874627
 RMS of difference density:                            0.00005737751580
 Gap [au]:  0.60826294
 ALPHA OCC:   7
 BETA  OCC:   7
 
 ***HARTREE-FOCK ENERGY IN STEP   5 IS       -112.6436109375367209 [AU]
 
 Step comparison  Energy Drift [au]  DIIS error drift  Gradient drift
        4            9.5253E-05         6.3823E-05       1.5895E-03
 ======================================================================
 ITERATION STEP   6
 CPU time [min]:     1.857                   Wall time [min]:     0.732
 

 SCF control                  : diis
 Damping factor/level shift   : 0.000/0.000
 DIIS [start/end/frequency]   :   2 /*** /  1

 Constructing Fock-matrix...
 
 Pipek-Mezey localization...
 Step  Convergence
   1   0.547900908453
   2   0.050188490316
   3   0.000832653684
   4   0.000000008116
   5   0.000000000005
   6   0.000000000000
 CPU time [min]:     1.877                   Wall time [min]:     0.733
 
 Constructing local fitting domains...
 Local fitting domains are unchanged.
 
 First step of Coulomb + first step of exchange...
 Exchange contribution is evaluated for MOs 1 to 7.
   1% done.
  13% done.
  27% done.
  41% done.
  58% done.
  70% done.
  82% done.
 100% done.
 Fitting and assembly step of exchange...
 CPU time [min]:     1.944                   Wall time [min]:     0.735
 
 Second step of Coulomb...
   1% done.
  13% done.
  27% done.
  41% done.
  58% done.
  70% done.
  82% done.
 100% done.
 CPU time [min]:     1.964                   Wall time [min]:     0.735
 
 Gradient norm:      7.2845E-04
 DIIS is running in this iteration step.
 RMS of [F,P]:                                         0.00001649090618
 RMS of difference density:                            0.00002792770889
 Gap [au]:  0.60837413
 ALPHA OCC:   7
 BETA  OCC:   7
 
 ***HARTREE-FOCK ENERGY IN STEP   6 IS       -112.6436236554657597 [AU]
 
 Step comparison  Energy Drift [au]  DIIS error drift  Gradient drift
        5            1.2718E-05         8.1968E-05       5.0992E-03
 ======================================================================
 ITERATION STEP   7
 CPU time [min]:     1.974                   Wall time [min]:     0.736
 

 SCF control                  : diis
 Damping factor/level shift   : 0.000/0.000
 DIIS [start/end/frequency]   :   2 /*** /  1

 Constructing Fock-matrix...
 
 Pipek-Mezey localization...
 Step  Convergence
   1   0.557840270170
   2   0.059835286518
   3   0.000707392524
   4   0.000000030500
   5   0.000000000005
   6   0.000000000000
 CPU time [min]:     1.993                   Wall time [min]:     0.736
 
 Constructing local fitting domains...
 Local fitting domains are unchanged.
 
 First step of Coulomb + first step of exchange...
 Exchange contribution is evaluated for MOs 1 to 7.
   1% done.
  13% done.
  27% done.
  41% done.
  58% done.
  70% done.
  82% done.
 100% done.
 Fitting and assembly step of exchange...
 CPU time [min]:     2.060                   Wall time [min]:     0.738
 
 Second step of Coulomb...
   1% done.
  13% done.
  27% done.
  41% done.
  58% done.
  70% done.
  82% done.
 100% done.
 CPU time [min]:     2.080                   Wall time [min]:     0.739
 
 Gradient norm:      2.0782E-04
 DIIS is running in this iteration step.
 RMS of [F,P]:                                         0.00000350339793
 RMS of difference density:                            0.00000414739871
 Gap [au]:  0.60832425
 ALPHA OCC:   7
 BETA  OCC:   7
 
 ***HARTREE-FOCK ENERGY IN STEP   7 IS       -112.6436247988759334 [AU]
 
 Step comparison  Energy Drift [au]  DIIS error drift  Gradient drift
        6            1.1434E-06         1.2988E-05       5.2063E-04
 ======================================================================
 ITERATION STEP   8
 CPU time [min]:     2.090                   Wall time [min]:     0.739
 

 SCF control                  : diis
 Damping factor/level shift   : 0.000/0.000
 DIIS [start/end/frequency]   :   2 /*** /  1

 Constructing Fock-matrix...
 
 Pipek-Mezey localization...
 Step  Convergence
   1   0.572027117864
   2   0.073211124220
   3   0.000746101610
   4   0.000000034533
   5   0.000000000003
   6   0.000000000000
 CPU time [min]:     2.109                   Wall time [min]:     0.739
 
 Constructing local fitting domains...
 Local fitting domains are unchanged.
 
 First step of Coulomb + first step of exchange...
 Exchange contribution is evaluated for MOs 1 to 7.
   1% done.
  13% done.
  27% done.
  41% done.
  58% done.
  70% done.
  82% done.
 100% done.
 Fitting and assembly step of exchange...
 CPU time [min]:     2.176                   Wall time [min]:     0.741
 
 Second step of Coulomb...
   1% done.
  13% done.
  27% done.
  41% done.
  58% done.
  70% done.
  82% done.
 100% done.
 CPU time [min]:     2.196                   Wall time [min]:     0.742
 
 Gradient norm:      2.4224E-05
 DIIS is running in this iteration step.
 RMS of [F,P]:                                         0.00000044305328
 RMS of difference density:                            0.00000053757975
 Gap [au]:  0.60833078
 ALPHA OCC:   7
 BETA  OCC:   7
 
 ***HARTREE-FOCK ENERGY IN STEP   8 IS       -112.6436248292715305 [AU]
 
 Step comparison  Energy Drift [au]  DIIS error drift  Gradient drift
        7            3.0396E-08         3.0603E-06       1.8360E-04
 ======================================================================
 ITERATION STEP   9
 CPU time [min]:     2.206                   Wall time [min]:     0.742
 

 SCF control                  : diis
 Damping factor/level shift   : 0.000/0.000
 DIIS [start/end/frequency]   :   2 /*** /  1

 Constructing Fock-matrix...
 
 Pipek-Mezey localization...
 Step  Convergence
   1   0.511285417537
   2   0.119991994885
   3   0.003512347425
   4   0.000000338266
   5   0.000000000005
   6   0.000000000000
 CPU time [min]:     2.225                   Wall time [min]:     0.743
 
 Constructing local fitting domains...
 Local fitting domains are unchanged.
 
 First step of Coulomb + first step of exchange...
 Exchange contribution is evaluated for MOs 1 to 7.
   1% done.
  13% done.
  27% done.
  41% done.
  58% done.
  70% done.
  82% done.
 100% done.
 Fitting and assembly step of exchange...
 CPU time [min]:     2.292                   Wall time [min]:     0.745
 
 Second step of Coulomb...
   1% done.
  13% done.
  27% done.
  41% done.
  58% done.
  70% done.
  82% done.
 100% done.
 CPU time [min]:     2.312                   Wall time [min]:     0.745
 
 Gradient norm:      2.4990E-06
 DIIS is running in this iteration step.
 RMS of [F,P]:                                         0.00000005934567
 RMS of difference density:                            0.00000008782728
 Gap [au]:  0.60832967
 ALPHA OCC:   7
 BETA  OCC:   7
 
 ***HARTREE-FOCK ENERGY IN STEP   9 IS       -112.6436248298132909 [AU]
 
 Step comparison  Energy Drift [au]  DIIS error drift  Gradient drift
        8            5.4176E-10         3.8371E-07       2.1725E-05
 
 The SCF iteration has converged.
 An extra iteration will be performed to calculate accurate SCF energy.
 
 ======================================================================
 ITERATION STEP  10
 CPU time [min]:     2.321                   Wall time [min]:     0.745
 

 SCF control                  : diis
 Damping factor/level shift   : 0.000/0.000
 DIIS [start/end/frequency]   :   2 /*** /  1

 Constructing Fock-matrix...
 
 Pipek-Mezey localization...
 Step  Convergence
   1   0.555774401581
   2   0.062877074795
   3   0.000061562692
   4   0.000000002031
   5   0.000000000001
   6   0.000000000000
 CPU time [min]:     2.341                   Wall time [min]:     0.746
 
 Constructing local fitting domains...
 Maximum number of atoms in fitting domains:    8
 Average number of atoms in fitting domains:    7.9
 
 First step of Coulomb + first step of exchange...
 Exchange contribution is evaluated for MOs 1 to 7.
   1% done.
  13% done.
  27% done.
  41% done.
  58% done.
  70% done.
  82% done.
 100% done.
 Fitting and assembly step of exchange...
 CPU time [min]:     2.424                   Wall time [min]:     0.748
 
 Second step of Coulomb...
   1% done.
  13% done.
  27% done.
  41% done.
  58% done.
  70% done.
  82% done.
 100% done.
 CPU time [min]:     2.444                   Wall time [min]:     0.749
 
 Gradient norm:      2.5692E-05
 RMS of [F,P]:                                         0.00000033063977
 RMS of difference density:                            0.00000029254684
 Gap [au]:  0.60833029
 ALPHA OCC:   7
 BETA  OCC:   7
 
 ***HARTREE-FOCK ENERGY IN STEP  10 IS       -112.6436277956499197 [AU]
 
 Step comparison  Energy Drift [au]  DIIS error drift  Gradient drift
        9            2.9658E-06        -2.7129E-07      -2.3193E-05
 Warning! The DIIS error goes uphill (with respect to previous step).
 Warning! The DIIS error goes uphill (with respect to step   9 ).
 Warning! The gradient goes uphill (with respect to previous step).
 Warning! The gradient goes uphill (with respect to step   9 ).
 ======================================================================
 
 SUCCESS...
 THE SCF ITERATION HAS CONVERGED!
 
                   A   
 FINAL ALPHA OCC:   7
 FINAL BETA  OCC:   7
 
 ***FINAL HARTREE-FOCK ENERGY:       -112.6436277956499197 [AU]
 
 Orbital energies [au]:
      Irrep         Alpha          Beta
    1   A        -20.668610     -20.668610
    2   A        -11.379020     -11.379020
    3   A         -1.497489      -1.497489
    4   A         -0.796913      -0.796913
    5   A         -0.635935      -0.635935
    6   A         -0.635935      -0.635935
    7   A         -0.554014      -0.554014
 
    8   A          0.054317       0.054317
    9   A          0.099336       0.099336
   10   A          0.099336       0.099336
   11   A          0.152586       0.152586
   12   A          0.167548       0.167548
   13   A          0.167548       0.167548
   14   A          0.218257       0.218257
   15   A          0.290593       0.290593
   16   A          0.330027       0.330027
   17   A          0.352452       0.352452
   18   A          0.394506       0.394506
   19   A          0.394506       0.394506
   20   A          0.437651       0.437651
   21   A          0.498004       0.498004
   22   A          0.498004       0.498004
   23   A          0.564166       0.564166
   24   A          0.564166       0.564166
   25   A          0.565627       0.565627
   26   A          0.612137       0.612137
   27   A          0.703884       0.703884
   28   A          0.703884       0.703884
   29   A          0.707740       0.707740
   30   A          0.766039       0.766039
   31   A          0.786084       0.786084
   32   A          0.786084       0.786084
   33   A          0.787327       0.787327
   34   A          0.793149       0.793149
   35   A          0.826400       0.826400
   36   A          0.884165       0.884165
   37   A          0.884165       0.884165
   38   A          0.890472       0.890472
   39   A          0.920498       0.920498
   40   A          0.965441       0.965441
   41   A          1.002296       1.002296
   42   A          1.002296       1.002296
   43   A          1.023673       1.023673
   44   A          1.059438       1.059438
   45   A          1.081513       1.081513
   46   A          1.127230       1.127230
   47   A          1.127230       1.127230
   48   A          1.184309       1.184309
   49   A          1.308416       1.308416
   50   A          1.308416       1.308416
   51   A          1.667552       1.667552
   52   A          1.891327       1.891327
   53   A          1.894005       1.894005
   54   A          1.964672       1.964672
   55   A          1.964672       1.964672
   56   A          2.235019       2.235019
   57   A          2.286378       2.286378
   58   A          2.286378       2.286378
   59   A          2.369663       2.369663
   60   A          2.384483       2.384483
   61   A          2.738850       2.738850
   62   A          2.959109       2.959109
   63   A          2.960324       2.960324
   64   A          3.278743       3.278743
   65   A          3.533315       3.533315
   66   A          3.533315       3.533315
   67   A          4.010063       4.010063
   68   A          4.200552       4.200552
   69   A          4.200559       4.200559
   70   A          4.200588       4.200588
   71   A          4.200588       4.200588
   72   A          4.200790       4.200790
   73   A          4.200849       4.200849
   74   A          4.200935       4.200935
   75   A          4.200935       4.200935
   76   A          4.201024       4.201024
   77   A          4.201041       4.201041
   78   A          4.201059       4.201059
   79   A          4.201706       4.201706
   80   A          4.201706       4.201706
   81   A          4.207945       4.207945
   82   A          4.207945       4.207945
   83   A          4.211237       4.211237
   84   A          4.250378       4.250378
   85   A          4.252247       4.252247
   86   A          4.268297       4.268297
   87   A          4.268297       4.268297
   88   A          4.278655       4.278655
   89   A          4.292995       4.292995
   90   A          4.310889       4.310889
   91   A          4.310889       4.310889
   92   A          4.318906       4.318906
   93   A          5.318302       5.318302
   94   A          5.356342       5.356342
   95   A          5.356342       5.356342
   96   A          5.421501       5.421501
   97   A          5.428648       5.428648
   98   A          5.428648       5.428648
   99   A          5.434868       5.434868
  100   A          5.447789       5.447789
  101   A          5.560178       5.560178
  102   A          5.560178       5.560178
  103   A          5.569076       5.569076
  104   A          5.590075       5.590075
  105   A          5.590075       5.590075
  106   A          5.639892       5.639892
  107   A          5.693697       5.693697
  108   A          9.037077       9.037077
  109   A          9.049388       9.049388
  110   A          9.049388       9.049388
  111   A         34.415342      34.415342
  112   A         34.415342      34.415342
  113   A         34.486024      34.486024
  114   A         34.588338      34.588338
  115   A         34.601247      34.601247
  116   A         74.842909      74.842909
 
 RETURNING FROM SCF ALGORITHM
 ======================================================================

 ************************ 2023-05-25 16:48:45 *************************
 Executing integ...

 Allocation of 160.0 Gbytes of memory...
 
 
 Number of atoms:                  8
 Charge:                           0
 Number of electrons:             14
 Number of core electrons:         4
 Spin multiplicity:                1
 
                 Cartesian coordinates [bohr]      Atomic mass [AMU]  Z
   1  C     0.00000000    0.00000000    4.76640325    12.000000       6
   2  O     0.00000000    0.00000000    6.93357862    15.994915       8
   3  Mg    0.00000000    0.00000000   -0.01460385     0.000000       0
   4  O    -4.00656758    0.00000000   -0.00388515     0.000000       0
   5  O     0.00000000    4.00656758   -0.00388515     0.000000       0
   6  O     4.00656758    0.00000000   -0.00388515     0.000000       0
   7  O     0.00000000   -4.00656758   -0.00388515     0.000000       0
   8  O     0.00000000    0.00000000   -4.06107376     0.000000       0
 
 This molecule is a prolate symmetric top.
 
 Point group: C4v 
 Computational point group: C1  
 
 Cartesian coordinates in standard orientation [bohr]
   1  C     0.00000000    0.00000000    0.55854670
   2  O     0.00000000    0.00000000    2.72572206
   3  Mg    0.00000000    0.00000000   -4.22246040
   4  O     4.00656758   -0.00000000   -4.21174170
   5  O    -0.00000000   -4.00656758   -4.21174170
   6  O    -4.00656758    0.00000000   -4.21174170
   7  O     0.00000000    4.00656758   -4.21174170
   8  O     0.00000000    0.00000000   -8.26893031
 
 Nuclear repulsion energy [au]:         22.148646010002
 
 
 Basis set information:
 
 Maximum angular momentum: g
 Maximum number of contracted Gaussians:   14
 Maximum number of primitive Gaussians:    17
 Spherical harmonic GTOs are used.
 
 
 Conventional basis set:
 
   1  C  aug-cc-pvtz [ 11s 6p 3d 2f | 5s 4p 3d 2f ]
   2  O  aug-cc-pvtz [ 11s 6p 3d 2f | 5s 4p 3d 2f ]
   3  Mg bse_cvtz [ 17s 12p 4d 2f | 7s 6p 4d 2f ]
   4  O  aug-cc-pvtz [ 11s 6p 3d 2f | 5s 4p 3d 2f ]
   5  O  aug-cc-pvtz [ 11s 6p 3d 2f | 5s 4p 3d 2f ]
   6  O  aug-cc-pvtz [ 11s 6p 3d 2f | 5s 4p 3d 2f ]
   7  O  aug-cc-pvtz [ 11s 6p 3d 2f | 5s 4p 3d 2f ]
   8  O  aug-cc-pvtz [ 11s 6p 3d 2f | 5s 4p 3d 2f ]
 
 Basis functions:
            1             2             3             4             5             6             7             8             9            10
    0    1C1s          1C2s          1C3s          1C4s          1C5s          1C1pz         1C1py         1C1px         1C2pz         1C2py     
    1    1C2px         1C3pz         1C3py         1C3px         1C4pz         1C4py         1C4px         1C1d-2        1C1d-1        1C1d0     
    2    1C1d+1        1C1d+2        1C2d-2        1C2d-1        1C2d0         1C2d+1        1C2d+2        1C3d-2        1C3d-1        1C3d0     
    3    1C3d+1        1C3d+2        1C1f-3        1C1f-2        1C1f-1        1C1f0         1C1f+1        1C1f+2        1C1f+3        1C2f-3    
    4    1C2f-2        1C2f-1        1C2f0         1C2f+1        1C2f+2        1C2f+3        2O1s          2O2s          2O3s          2O4s      
    5    2O5s          2O1pz         2O1py         2O1px         2O2pz         2O2py         2O2px         2O3pz         2O3py         2O3px     
    6    2O4pz         2O4py         2O4px         2O1d-2        2O1d-1        2O1d0         2O1d+1        2O1d+2        2O2d-2        2O2d-1    
    7    2O2d0         2O2d+1        2O2d+2        2O3d-2        2O3d-1        2O3d0         2O3d+1        2O3d+2        2O1f-3        2O1f-2    
    8    2O1f-1        2O1f0         2O1f+1        2O1f+2        2O1f+3        2O2f-3        2O2f-2        2O2f-1        2O2f0         2O2f+1    
    9    2O2f+2        2O2f+3        3Mg1s         3Mg2s         3Mg3s         3Mg4s         3Mg5s         3Mg6s         3Mg7s         3Mg1pz    
   10    3Mg1py        3Mg1px        3Mg2pz        3Mg2py        3Mg2px        3Mg3pz        3Mg3py        3Mg3px        3Mg4pz        3Mg4py    
   11    3Mg4px        3Mg5pz        3Mg5py        3Mg5px        3Mg6pz        3Mg6py        3Mg6px        3Mg1d-2       3Mg1d-1       3Mg1d0    
   12    3Mg1d+1       3Mg1d+2       3Mg2d-2       3Mg2d-1       3Mg2d0        3Mg2d+1       3Mg2d+2       3Mg3d-2       3Mg3d-1       3Mg3d0    
   13    3Mg3d+1       3Mg3d+2       3Mg4d-2       3Mg4d-1       3Mg4d0        3Mg4d+1       3Mg4d+2       3Mg1f-3       3Mg1f-2       3Mg1f-1   
   14    3Mg1f0        3Mg1f+1       3Mg1f+2       3Mg1f+3       3Mg2f-3       3Mg2f-2       3Mg2f-1       3Mg2f0        3Mg2f+1       3Mg2f+2   
   15    3Mg2f+3       4O1s          4O2s          4O3s          4O4s          4O5s          4O1pz         4O1py         4O1px         4O2pz     
   16    4O2py         4O2px         4O3pz         4O3py         4O3px         4O4pz         4O4py         4O4px         4O1d-2        4O1d-1    
   17    4O1d0         4O1d+1        4O1d+2        4O2d-2        4O2d-1        4O2d0         4O2d+1        4O2d+2        4O3d-2        4O3d-1    
   18    4O3d0         4O3d+1        4O3d+2        4O1f-3        4O1f-2        4O1f-1        4O1f0         4O1f+1        4O1f+2        4O1f+3    
   19    4O2f-3        4O2f-2        4O2f-1        4O2f0         4O2f+1        4O2f+2        4O2f+3        5O1s          5O2s          5O3s      
   20    5O4s          5O5s          5O1pz         5O1py         5O1px         5O2pz         5O2py         5O2px         5O3pz         5O3py     
   21    5O3px         5O4pz         5O4py         5O4px         5O1d-2        5O1d-1        5O1d0         5O1d+1        5O1d+2        5O2d-2    
   22    5O2d-1        5O2d0         5O2d+1        5O2d+2        5O3d-2        5O3d-1        5O3d0         5O3d+1        5O3d+2        5O1f-3    
   23    5O1f-2        5O1f-1        5O1f0         5O1f+1        5O1f+2        5O1f+3        5O2f-3        5O2f-2        5O2f-1        5O2f0     
   24    5O2f+1        5O2f+2        5O2f+3        6O1s          6O2s          6O3s          6O4s          6O5s          6O1pz         6O1py     
   25    6O1px         6O2pz         6O2py         6O2px         6O3pz         6O3py         6O3px         6O4pz         6O4py         6O4px     
   26    6O1d-2        6O1d-1        6O1d0         6O1d+1        6O1d+2        6O2d-2        6O2d-1        6O2d0         6O2d+1        6O2d+2    
   27    6O3d-2        6O3d-1        6O3d0         6O3d+1        6O3d+2        6O1f-3        6O1f-2        6O1f-1        6O1f0         6O1f+1    
   28    6O1f+2        6O1f+3        6O2f-3        6O2f-2        6O2f-1        6O2f0         6O2f+1        6O2f+2        6O2f+3        7O1s      
   29    7O2s          7O3s          7O4s          7O5s          7O1pz         7O1py         7O1px         7O2pz         7O2py         7O2px     
   30    7O3pz         7O3py         7O3px         7O4pz         7O4py         7O4px         7O1d-2        7O1d-1        7O1d0         7O1d+1    
   31    7O1d+2        7O2d-2        7O2d-1        7O2d0         7O2d+1        7O2d+2        7O3d-2        7O3d-1        7O3d0         7O3d+1    
   32    7O3d+2        7O1f-3        7O1f-2        7O1f-1        7O1f0         7O1f+1        7O1f+2        7O1f+3        7O2f-3        7O2f-2    
   33    7O2f-1        7O2f0         7O2f+1        7O2f+2        7O2f+3        8O1s          8O2s          8O3s          8O4s          8O5s      
   34    8O1pz         8O1py         8O1px         8O2pz         8O2py         8O2px         8O3pz         8O3py         8O3px         8O4pz     
   35    8O4py         8O4px         8O1d-2        8O1d-1        8O1d0         8O1d+1        8O1d+2        8O2d-2        8O2d-1        8O2d0     
   36    8O2d+1        8O2d+2        8O3d-2        8O3d-1        8O3d0         8O3d+1        8O3d+2        8O1f-3        8O1f-2        8O1f-1    
   37    8O1f0         8O1f+1        8O1f+2        8O1f+3        8O2f-3        8O2f-2        8O2f-1        8O2f0         8O2f+1        8O2f+2    
   38    8O2f+3    
 
 Maximum number of basis functions per shell:   20
 Total number of basis functions:    381
 
 
 Fitting basis set for the SCF calculation:
 
   1  C  def2-qzvpp-ri-jk [ 14s 10p 6d 2f 1g | 10s 8p 5d 1f 1g ]
   2  O  def2-qzvpp-ri-jk [ 14s 10p 6d 2f 1g | 10s 8p 4d 2f 1g ]
   3  Mg def2-qzvpp-ri-jk [ 16s 12p 9d 4f 1g | 13s 9p 7d 4f 1g ]
   4  O  def2-qzvpp-ri-jk [ 14s 10p 6d 2f 1g | 10s 8p 4d 2f 1g ]
   5  O  def2-qzvpp-ri-jk [ 14s 10p 6d 2f 1g | 10s 8p 4d 2f 1g ]
   6  O  def2-qzvpp-ri-jk [ 14s 10p 6d 2f 1g | 10s 8p 4d 2f 1g ]
   7  O  def2-qzvpp-ri-jk [ 14s 10p 6d 2f 1g | 10s 8p 4d 2f 1g ]
   8  O  def2-qzvpp-ri-jk [ 14s 10p 6d 2f 1g | 10s 8p 4d 2f 1g ]
 
 Basis functions:
            1             2             3             4             5             6             7             8             9            10
    0    1C1s          1C2s          1C3s          1C4s          1C5s          1C6s          1C7s          1C8s          1C9s          1C10s     
    1    1C1pz         1C1py         1C1px         1C2pz         1C2py         1C2px         1C3pz         1C3py         1C3px         1C4pz     
    2    1C4py         1C4px         1C5pz         1C5py         1C5px         1C6pz         1C6py         1C6px         1C7pz         1C7py     
    3    1C7px         1C8pz         1C8py         1C8px         1C1d-2        1C1d-1        1C1d0         1C1d+1        1C1d+2        1C2d-2    
    4    1C2d-1        1C2d0         1C2d+1        1C2d+2        1C3d-2        1C3d-1        1C3d0         1C3d+1        1C3d+2        1C4d-2    
    5    1C4d-1        1C4d0         1C4d+1        1C4d+2        1C5d-2        1C5d-1        1C5d0         1C5d+1        1C5d+2        1C1f-3    
    6    1C1f-2        1C1f-1        1C1f0         1C1f+1        1C1f+2        1C1f+3        1C1g-4        1C1g-3        1C1g-2        1C1g-1    
    7    1C1g0         1C1g+1        1C1g+2        1C1g+3        1C1g+4        2O1s          2O2s          2O3s          2O4s          2O5s      
    8    2O6s          2O7s          2O8s          2O9s          2O10s         2O1pz         2O1py         2O1px         2O2pz         2O2py     
    9    2O2px         2O3pz         2O3py         2O3px         2O4pz         2O4py         2O4px         2O5pz         2O5py         2O5px     
   10    2O6pz         2O6py         2O6px         2O7pz         2O7py         2O7px         2O8pz         2O8py         2O8px         2O1d-2    
   11    2O1d-1        2O1d0         2O1d+1        2O1d+2        2O2d-2        2O2d-1        2O2d0         2O2d+1        2O2d+2        2O3d-2    
   12    2O3d-1        2O3d0         2O3d+1        2O3d+2        2O4d-2        2O4d-1        2O4d0         2O4d+1        2O4d+2        2O1f-3    
   13    2O1f-2        2O1f-1        2O1f0         2O1f+1        2O1f+2        2O1f+3        2O2f-3        2O2f-2        2O2f-1        2O2f0     
   14    2O2f+1        2O2f+2        2O2f+3        2O1g-4        2O1g-3        2O1g-2        2O1g-1        2O1g0         2O1g+1        2O1g+2    
   15    2O1g+3        2O1g+4        3Mg1s         3Mg2s         3Mg3s         3Mg4s         3Mg5s         3Mg6s         3Mg7s         3Mg8s     
   16    3Mg9s         3Mg10s        3Mg11s        3Mg12s        3Mg13s        3Mg1pz        3Mg1py        3Mg1px        3Mg2pz        3Mg2py    
   17    3Mg2px        3Mg3pz        3Mg3py        3Mg3px        3Mg4pz        3Mg4py        3Mg4px        3Mg5pz        3Mg5py        3Mg5px    
   18    3Mg6pz        3Mg6py        3Mg6px        3Mg7pz        3Mg7py        3Mg7px        3Mg8pz        3Mg8py        3Mg8px        3Mg9pz    
   19    3Mg9py        3Mg9px        3Mg1d-2       3Mg1d-1       3Mg1d0        3Mg1d+1       3Mg1d+2       3Mg2d-2       3Mg2d-1       3Mg2d0    
   20    3Mg2d+1       3Mg2d+2       3Mg3d-2       3Mg3d-1       3Mg3d0        3Mg3d+1       3Mg3d+2       3Mg4d-2       3Mg4d-1       3Mg4d0    
   21    3Mg4d+1       3Mg4d+2       3Mg5d-2       3Mg5d-1       3Mg5d0        3Mg5d+1       3Mg5d+2       3Mg6d-2       3Mg6d-1       3Mg6d0    
   22    3Mg6d+1       3Mg6d+2       3Mg7d-2       3Mg7d-1       3Mg7d0        3Mg7d+1       3Mg7d+2       3Mg1f-3       3Mg1f-2       3Mg1f-1   
   23    3Mg1f0        3Mg1f+1       3Mg1f+2       3Mg1f+3       3Mg2f-3       3Mg2f-2       3Mg2f-1       3Mg2f0        3Mg2f+1       3Mg2f+2   
   24    3Mg2f+3       3Mg3f-3       3Mg3f-2       3Mg3f-1       3Mg3f0        3Mg3f+1       3Mg3f+2       3Mg3f+3       3Mg4f-3       3Mg4f-2   
   25    3Mg4f-1       3Mg4f0        3Mg4f+1       3Mg4f+2       3Mg4f+3       3Mg1g-4       3Mg1g-3       3Mg1g-2       3Mg1g-1       3Mg1g0    
   26    3Mg1g+1       3Mg1g+2       3Mg1g+3       3Mg1g+4       4O1s          4O2s          4O3s          4O4s          4O5s          4O6s      
   27    4O7s          4O8s          4O9s          4O10s         4O1pz         4O1py         4O1px         4O2pz         4O2py         4O2px     
   28    4O3pz         4O3py         4O3px         4O4pz         4O4py         4O4px         4O5pz         4O5py         4O5px         4O6pz     
   29    4O6py         4O6px         4O7pz         4O7py         4O7px         4O8pz         4O8py         4O8px         4O1d-2        4O1d-1    
   30    4O1d0         4O1d+1        4O1d+2        4O2d-2        4O2d-1        4O2d0         4O2d+1        4O2d+2        4O3d-2        4O3d-1    
   31    4O3d0         4O3d+1        4O3d+2        4O4d-2        4O4d-1        4O4d0         4O4d+1        4O4d+2        4O1f-3        4O1f-2    
   32    4O1f-1        4O1f0         4O1f+1        4O1f+2        4O1f+3        4O2f-3        4O2f-2        4O2f-1        4O2f0         4O2f+1    
   33    4O2f+2        4O2f+3        4O1g-4        4O1g-3        4O1g-2        4O1g-1        4O1g0         4O1g+1        4O1g+2        4O1g+3    
   34    4O1g+4        5O1s          5O2s          5O3s          5O4s          5O5s          5O6s          5O7s          5O8s          5O9s      
   35    5O10s         5O1pz         5O1py         5O1px         5O2pz         5O2py         5O2px         5O3pz         5O3py         5O3px     
   36    5O4pz         5O4py         5O4px         5O5pz         5O5py         5O5px         5O6pz         5O6py         5O6px         5O7pz     
   37    5O7py         5O7px         5O8pz         5O8py         5O8px         5O1d-2        5O1d-1        5O1d0         5O1d+1        5O1d+2    
   38    5O2d-2        5O2d-1        5O2d0         5O2d+1        5O2d+2        5O3d-2        5O3d-1        5O3d0         5O3d+1        5O3d+2    
   39    5O4d-2        5O4d-1        5O4d0         5O4d+1        5O4d+2        5O1f-3        5O1f-2        5O1f-1        5O1f0         5O1f+1    
   40    5O1f+2        5O1f+3        5O2f-3        5O2f-2        5O2f-1        5O2f0         5O2f+1        5O2f+2        5O2f+3        5O1g-4    
   41    5O1g-3        5O1g-2        5O1g-1        5O1g0         5O1g+1        5O1g+2        5O1g+3        5O1g+4        6O1s          6O2s      
   42    6O3s          6O4s          6O5s          6O6s          6O7s          6O8s          6O9s          6O10s         6O1pz         6O1py     
   43    6O1px         6O2pz         6O2py         6O2px         6O3pz         6O3py         6O3px         6O4pz         6O4py         6O4px     
   44    6O5pz         6O5py         6O5px         6O6pz         6O6py         6O6px         6O7pz         6O7py         6O7px         6O8pz     
   45    6O8py         6O8px         6O1d-2        6O1d-1        6O1d0         6O1d+1        6O1d+2        6O2d-2        6O2d-1        6O2d0     
   46    6O2d+1        6O2d+2        6O3d-2        6O3d-1        6O3d0         6O3d+1        6O3d+2        6O4d-2        6O4d-1        6O4d0     
   47    6O4d+1        6O4d+2        6O1f-3        6O1f-2        6O1f-1        6O1f0         6O1f+1        6O1f+2        6O1f+3        6O2f-3    
   48    6O2f-2        6O2f-1        6O2f0         6O2f+1        6O2f+2        6O2f+3        6O1g-4        6O1g-3        6O1g-2        6O1g-1    
   49    6O1g0         6O1g+1        6O1g+2        6O1g+3        6O1g+4        7O1s          7O2s          7O3s          7O4s          7O5s      
   50    7O6s          7O7s          7O8s          7O9s          7O10s         7O1pz         7O1py         7O1px         7O2pz         7O2py     
   51    7O2px         7O3pz         7O3py         7O3px         7O4pz         7O4py         7O4px         7O5pz         7O5py         7O5px     
   52    7O6pz         7O6py         7O6px         7O7pz         7O7py         7O7px         7O8pz         7O8py         7O8px         7O1d-2    
   53    7O1d-1        7O1d0         7O1d+1        7O1d+2        7O2d-2        7O2d-1        7O2d0         7O2d+1        7O2d+2        7O3d-2    
   54    7O3d-1        7O3d0         7O3d+1        7O3d+2        7O4d-2        7O4d-1        7O4d0         7O4d+1        7O4d+2        7O1f-3    
   55    7O1f-2        7O1f-1        7O1f0         7O1f+1        7O1f+2        7O1f+3        7O2f-3        7O2f-2        7O2f-1        7O2f0     
   56    7O2f+1        7O2f+2        7O2f+3        7O1g-4        7O1g-3        7O1g-2        7O1g-1        7O1g0         7O1g+1        7O1g+2    
   57    7O1g+3        7O1g+4        8O1s          8O2s          8O3s          8O4s          8O5s          8O6s          8O7s          8O8s      
   58    8O9s          8O10s         8O1pz         8O1py         8O1px         8O2pz         8O2py         8O2px         8O3pz         8O3py     
   59    8O3px         8O4pz         8O4py         8O4px         8O5pz         8O5py         8O5px         8O6pz         8O6py         8O6px     
   60    8O7pz         8O7py         8O7px         8O8pz         8O8py         8O8px         8O1d-2        8O1d-1        8O1d0         8O1d+1    
   61    8O1d+2        8O2d-2        8O2d-1        8O2d0         8O2d+1        8O2d+2        8O3d-2        8O3d-1        8O3d0         8O3d+1    
   62    8O3d+2        8O4d-2        8O4d-1        8O4d0         8O4d+1        8O4d+2        8O1f-3        8O1f-2        8O1f-1        8O1f0     
   63    8O1f+1        8O1f+2        8O1f+3        8O2f-3        8O2f-2        8O2f-1        8O2f0         8O2f+1        8O2f+2        8O2f+3    
   64    8O1g-4        8O1g-3        8O1g-2        8O1g-1        8O1g0         8O1g+1        8O1g+2        8O1g+3        8O1g+4    
 
 Maximum number of basis functions per shell:   35
 Total number of basis functions:    649
 
 
 Fitting basis set for the correlation calculation:
 
   1  C  aug-cc-pvtz-ri [ 9s 7p 6d 4f 2g | 9s 7p 6d 4f 2g ]
   2  O  aug-cc-pvtz-ri [ 9s 7p 6d 4f 2g | 9s 7p 6d 4f 2g ]
   3  Mg bse_cvtz_mp2fit [ 14s 12p 10d 7f 3g | 14s 12p 10d 7f 3g ]
   4  O  aug-cc-pvtz-ri [ 9s 7p 6d 4f 2g | 9s 7p 6d 4f 2g ]
   5  O  aug-cc-pvtz-ri [ 9s 7p 6d 4f 2g | 9s 7p 6d 4f 2g ]
   6  O  aug-cc-pvtz-ri [ 9s 7p 6d 4f 2g | 9s 7p 6d 4f 2g ]
   7  O  aug-cc-pvtz-ri [ 9s 7p 6d 4f 2g | 9s 7p 6d 4f 2g ]
   8  O  aug-cc-pvtz-ri [ 9s 7p 6d 4f 2g | 9s 7p 6d 4f 2g ]
 
 Basis functions:
            1             2             3             4             5             6             7             8             9            10
    0    1C1s          1C2s          1C3s          1C4s          1C5s          1C6s          1C7s          1C8s          1C9s          1C1pz     
    1    1C1py         1C1px         1C2pz         1C2py         1C2px         1C3pz         1C3py         1C3px         1C4pz         1C4py     
    2    1C4px         1C5pz         1C5py         1C5px         1C6pz         1C6py         1C6px         1C7pz         1C7py         1C7px     
    3    1C1d-2        1C1d-1        1C1d0         1C1d+1        1C1d+2        1C2d-2        1C2d-1        1C2d0         1C2d+1        1C2d+2    
    4    1C3d-2        1C3d-1        1C3d0         1C3d+1        1C3d+2        1C4d-2        1C4d-1        1C4d0         1C4d+1        1C4d+2    
    5    1C5d-2        1C5d-1        1C5d0         1C5d+1        1C5d+2        1C6d-2        1C6d-1        1C6d0         1C6d+1        1C6d+2    
    6    1C1f-3        1C1f-2        1C1f-1        1C1f0         1C1f+1        1C1f+2        1C1f+3        1C2f-3        1C2f-2        1C2f-1    
    7    1C2f0         1C2f+1        1C2f+2        1C2f+3        1C3f-3        1C3f-2        1C3f-1        1C3f0         1C3f+1        1C3f+2    
    8    1C3f+3        1C4f-3        1C4f-2        1C4f-1        1C4f0         1C4f+1        1C4f+2        1C4f+3        1C1g-4        1C1g-3    
    9    1C1g-2        1C1g-1        1C1g0         1C1g+1        1C1g+2        1C1g+3        1C1g+4        1C2g-4        1C2g-3        1C2g-2    
   10    1C2g-1        1C2g0         1C2g+1        1C2g+2        1C2g+3        1C2g+4        2O1s          2O2s          2O3s          2O4s      
   11    2O5s          2O6s          2O7s          2O8s          2O9s          2O1pz         2O1py         2O1px         2O2pz         2O2py     
   12    2O2px         2O3pz         2O3py         2O3px         2O4pz         2O4py         2O4px         2O5pz         2O5py         2O5px     
   13    2O6pz         2O6py         2O6px         2O7pz         2O7py         2O7px         2O1d-2        2O1d-1        2O1d0         2O1d+1    
   14    2O1d+2        2O2d-2        2O2d-1        2O2d0         2O2d+1        2O2d+2        2O3d-2        2O3d-1        2O3d0         2O3d+1    
   15    2O3d+2        2O4d-2        2O4d-1        2O4d0         2O4d+1        2O4d+2        2O5d-2        2O5d-1        2O5d0         2O5d+1    
   16    2O5d+2        2O6d-2        2O6d-1        2O6d0         2O6d+1        2O6d+2        2O1f-3        2O1f-2        2O1f-1        2O1f0     
   17    2O1f+1        2O1f+2        2O1f+3        2O2f-3        2O2f-2        2O2f-1        2O2f0         2O2f+1        2O2f+2        2O2f+3    
   18    2O3f-3        2O3f-2        2O3f-1        2O3f0         2O3f+1        2O3f+2        2O3f+3        2O4f-3        2O4f-2        2O4f-1    
   19    2O4f0         2O4f+1        2O4f+2        2O4f+3        2O1g-4        2O1g-3        2O1g-2        2O1g-1        2O1g0         2O1g+1    
   20    2O1g+2        2O1g+3        2O1g+4        2O2g-4        2O2g-3        2O2g-2        2O2g-1        2O2g0         2O2g+1        2O2g+2    
   21    2O2g+3        2O2g+4        3Mg1s         3Mg2s         3Mg3s         3Mg4s         3Mg5s         3Mg6s         3Mg7s         3Mg8s     
   22    3Mg9s         3Mg10s        3Mg11s        3Mg12s        3Mg13s        3Mg14s        3Mg1pz        3Mg1py        3Mg1px        3Mg2pz    
   23    3Mg2py        3Mg2px        3Mg3pz        3Mg3py        3Mg3px        3Mg4pz        3Mg4py        3Mg4px        3Mg5pz        3Mg5py    
   24    3Mg5px        3Mg6pz        3Mg6py        3Mg6px        3Mg7pz        3Mg7py        3Mg7px        3Mg8pz        3Mg8py        3Mg8px    
   25    3Mg9pz        3Mg9py        3Mg9px        3Mg10pz       3Mg10py       3Mg10px       3Mg11pz       3Mg11py       3Mg11px       3Mg12pz   
   26    3Mg12py       3Mg12px       3Mg1d-2       3Mg1d-1       3Mg1d0        3Mg1d+1       3Mg1d+2       3Mg2d-2       3Mg2d-1       3Mg2d0    
   27    3Mg2d+1       3Mg2d+2       3Mg3d-2       3Mg3d-1       3Mg3d0        3Mg3d+1       3Mg3d+2       3Mg4d-2       3Mg4d-1       3Mg4d0    
   28    3Mg4d+1       3Mg4d+2       3Mg5d-2       3Mg5d-1       3Mg5d0        3Mg5d+1       3Mg5d+2       3Mg6d-2       3Mg6d-1       3Mg6d0    
   29    3Mg6d+1       3Mg6d+2       3Mg7d-2       3Mg7d-1       3Mg7d0        3Mg7d+1       3Mg7d+2       3Mg8d-2       3Mg8d-1       3Mg8d0    
   30    3Mg8d+1       3Mg8d+2       3Mg9d-2       3Mg9d-1       3Mg9d0        3Mg9d+1       3Mg9d+2       3Mg10d-2      3Mg10d-1      3Mg10d0   
   31    3Mg10d+1      3Mg10d+2      3Mg1f-3       3Mg1f-2       3Mg1f-1       3Mg1f0        3Mg1f+1       3Mg1f+2       3Mg1f+3       3Mg2f-3   
   32    3Mg2f-2       3Mg2f-1       3Mg2f0        3Mg2f+1       3Mg2f+2       3Mg2f+3       3Mg3f-3       3Mg3f-2       3Mg3f-1       3Mg3f0    
   33    3Mg3f+1       3Mg3f+2       3Mg3f+3       3Mg4f-3       3Mg4f-2       3Mg4f-1       3Mg4f0        3Mg4f+1       3Mg4f+2       3Mg4f+3   
   34    3Mg5f-3       3Mg5f-2       3Mg5f-1       3Mg5f0        3Mg5f+1       3Mg5f+2       3Mg5f+3       3Mg6f-3       3Mg6f-2       3Mg6f-1   
   35    3Mg6f0        3Mg6f+1       3Mg6f+2       3Mg6f+3       3Mg7f-3       3Mg7f-2       3Mg7f-1       3Mg7f0        3Mg7f+1       3Mg7f+2   
   36    3Mg7f+3       3Mg1g-4       3Mg1g-3       3Mg1g-2       3Mg1g-1       3Mg1g0        3Mg1g+1       3Mg1g+2       3Mg1g+3       3Mg1g+4   
   37    3Mg2g-4       3Mg2g-3       3Mg2g-2       3Mg2g-1       3Mg2g0        3Mg2g+1       3Mg2g+2       3Mg2g+3       3Mg2g+4       3Mg3g-4   
   38    3Mg3g-3       3Mg3g-2       3Mg3g-1       3Mg3g0        3Mg3g+1       3Mg3g+2       3Mg3g+3       3Mg3g+4       4O1s          4O2s      
   39    4O3s          4O4s          4O5s          4O6s          4O7s          4O8s          4O9s          4O1pz         4O1py         4O1px     
   40    4O2pz         4O2py         4O2px         4O3pz         4O3py         4O3px         4O4pz         4O4py         4O4px         4O5pz     
   41    4O5py         4O5px         4O6pz         4O6py         4O6px         4O7pz         4O7py         4O7px         4O1d-2        4O1d-1    
   42    4O1d0         4O1d+1        4O1d+2        4O2d-2        4O2d-1        4O2d0         4O2d+1        4O2d+2        4O3d-2        4O3d-1    
   43    4O3d0         4O3d+1        4O3d+2        4O4d-2        4O4d-1        4O4d0         4O4d+1        4O4d+2        4O5d-2        4O5d-1    
   44    4O5d0         4O5d+1        4O5d+2        4O6d-2        4O6d-1        4O6d0         4O6d+1        4O6d+2        4O1f-3        4O1f-2    
   45    4O1f-1        4O1f0         4O1f+1        4O1f+2        4O1f+3        4O2f-3        4O2f-2        4O2f-1        4O2f0         4O2f+1    
   46    4O2f+2        4O2f+3        4O3f-3        4O3f-2        4O3f-1        4O3f0         4O3f+1        4O3f+2        4O3f+3        4O4f-3    
   47    4O4f-2        4O4f-1        4O4f0         4O4f+1        4O4f+2        4O4f+3        4O1g-4        4O1g-3        4O1g-2        4O1g-1    
   48    4O1g0         4O1g+1        4O1g+2        4O1g+3        4O1g+4        4O2g-4        4O2g-3        4O2g-2        4O2g-1        4O2g0     
   49    4O2g+1        4O2g+2        4O2g+3        4O2g+4        5O1s          5O2s          5O3s          5O4s          5O5s          5O6s      
   50    5O7s          5O8s          5O9s          5O1pz         5O1py         5O1px         5O2pz         5O2py         5O2px         5O3pz     
   51    5O3py         5O3px         5O4pz         5O4py         5O4px         5O5pz         5O5py         5O5px         5O6pz         5O6py     
   52    5O6px         5O7pz         5O7py         5O7px         5O1d-2        5O1d-1        5O1d0         5O1d+1        5O1d+2        5O2d-2    
   53    5O2d-1        5O2d0         5O2d+1        5O2d+2        5O3d-2        5O3d-1        5O3d0         5O3d+1        5O3d+2        5O4d-2    
   54    5O4d-1        5O4d0         5O4d+1        5O4d+2        5O5d-2        5O5d-1        5O5d0         5O5d+1        5O5d+2        5O6d-2    
   55    5O6d-1        5O6d0         5O6d+1        5O6d+2        5O1f-3        5O1f-2        5O1f-1        5O1f0         5O1f+1        5O1f+2    
   56    5O1f+3        5O2f-3        5O2f-2        5O2f-1        5O2f0         5O2f+1        5O2f+2        5O2f+3        5O3f-3        5O3f-2    
   57    5O3f-1        5O3f0         5O3f+1        5O3f+2        5O3f+3        5O4f-3        5O4f-2        5O4f-1        5O4f0         5O4f+1    
   58    5O4f+2        5O4f+3        5O1g-4        5O1g-3        5O1g-2        5O1g-1        5O1g0         5O1g+1        5O1g+2        5O1g+3    
   59    5O1g+4        5O2g-4        5O2g-3        5O2g-2        5O2g-1        5O2g0         5O2g+1        5O2g+2        5O2g+3        5O2g+4    
   60    6O1s          6O2s          6O3s          6O4s          6O5s          6O6s          6O7s          6O8s          6O9s          6O1pz     
   61    6O1py         6O1px         6O2pz         6O2py         6O2px         6O3pz         6O3py         6O3px         6O4pz         6O4py     
   62    6O4px         6O5pz         6O5py         6O5px         6O6pz         6O6py         6O6px         6O7pz         6O7py         6O7px     
   63    6O1d-2        6O1d-1        6O1d0         6O1d+1        6O1d+2        6O2d-2        6O2d-1        6O2d0         6O2d+1        6O2d+2    
   64    6O3d-2        6O3d-1        6O3d0         6O3d+1        6O3d+2        6O4d-2        6O4d-1        6O4d0         6O4d+1        6O4d+2    
   65    6O5d-2        6O5d-1        6O5d0         6O5d+1        6O5d+2        6O6d-2        6O6d-1        6O6d0         6O6d+1        6O6d+2    
   66    6O1f-3        6O1f-2        6O1f-1        6O1f0         6O1f+1        6O1f+2        6O1f+3        6O2f-3        6O2f-2        6O2f-1    
   67    6O2f0         6O2f+1        6O2f+2        6O2f+3        6O3f-3        6O3f-2        6O3f-1        6O3f0         6O3f+1        6O3f+2    
   68    6O3f+3        6O4f-3        6O4f-2        6O4f-1        6O4f0         6O4f+1        6O4f+2        6O4f+3        6O1g-4        6O1g-3    
   69    6O1g-2        6O1g-1        6O1g0         6O1g+1        6O1g+2        6O1g+3        6O1g+4        6O2g-4        6O2g-3        6O2g-2    
   70    6O2g-1        6O2g0         6O2g+1        6O2g+2        6O2g+3        6O2g+4        7O1s          7O2s          7O3s          7O4s      
   71    7O5s          7O6s          7O7s          7O8s          7O9s          7O1pz         7O1py         7O1px         7O2pz         7O2py     
   72    7O2px         7O3pz         7O3py         7O3px         7O4pz         7O4py         7O4px         7O5pz         7O5py         7O5px     
   73    7O6pz         7O6py         7O6px         7O7pz         7O7py         7O7px         7O1d-2        7O1d-1        7O1d0         7O1d+1    
   74    7O1d+2        7O2d-2        7O2d-1        7O2d0         7O2d+1        7O2d+2        7O3d-2        7O3d-1        7O3d0         7O3d+1    
   75    7O3d+2        7O4d-2        7O4d-1        7O4d0         7O4d+1        7O4d+2        7O5d-2        7O5d-1        7O5d0         7O5d+1    
   76    7O5d+2        7O6d-2        7O6d-1        7O6d0         7O6d+1        7O6d+2        7O1f-3        7O1f-2        7O1f-1        7O1f0     
   77    7O1f+1        7O1f+2        7O1f+3        7O2f-3        7O2f-2        7O2f-1        7O2f0         7O2f+1        7O2f+2        7O2f+3    
   78    7O3f-3        7O3f-2        7O3f-1        7O3f0         7O3f+1        7O3f+2        7O3f+3        7O4f-3        7O4f-2        7O4f-1    
   79    7O4f0         7O4f+1        7O4f+2        7O4f+3        7O1g-4        7O1g-3        7O1g-2        7O1g-1        7O1g0         7O1g+1    
   80    7O1g+2        7O1g+3        7O1g+4        7O2g-4        7O2g-3        7O2g-2        7O2g-1        7O2g0         7O2g+1        7O2g+2    
   81    7O2g+3        7O2g+4        8O1s          8O2s          8O3s          8O4s          8O5s          8O6s          8O7s          8O8s      
   82    8O9s          8O1pz         8O1py         8O1px         8O2pz         8O2py         8O2px         8O3pz         8O3py         8O3px     
   83    8O4pz         8O4py         8O4px         8O5pz         8O5py         8O5px         8O6pz         8O6py         8O6px         8O7pz     
   84    8O7py         8O7px         8O1d-2        8O1d-1        8O1d0         8O1d+1        8O1d+2        8O2d-2        8O2d-1        8O2d0     
   85    8O2d+1        8O2d+2        8O3d-2        8O3d-1        8O3d0         8O3d+1        8O3d+2        8O4d-2        8O4d-1        8O4d0     
   86    8O4d+1        8O4d+2        8O5d-2        8O5d-1        8O5d0         8O5d+1        8O5d+2        8O6d-2        8O6d-1        8O6d0     
   87    8O6d+1        8O6d+2        8O1f-3        8O1f-2        8O1f-1        8O1f0         8O1f+1        8O1f+2        8O1f+3        8O2f-3    
   88    8O2f-2        8O2f-1        8O2f0         8O2f+1        8O2f+2        8O2f+3        8O3f-3        8O3f-2        8O3f-1        8O3f0     
   89    8O3f+1        8O3f+2        8O3f+3        8O4f-3        8O4f-2        8O4f-1        8O4f0         8O4f+1        8O4f+2        8O4f+3    
   90    8O1g-4        8O1g-3        8O1g-2        8O1g-1        8O1g0         8O1g+1        8O1g+2        8O1g+3        8O1g+4        8O2g-4    
   91    8O2g-3        8O2g-2        8O2g-1        8O2g0         8O2g+1        8O2g+2        8O2g+3        8O2g+4    
 
 Maximum number of basis functions per shell:   50
 Total number of basis functions:    918
 
 
 Old basis set for SCF restart
 
   1  C  def2-svp [ 7s 4p 1d | 3s 2p 1d ]
   2  O  def2-svp [ 7s 4p 1d | 3s 2p 1d ]
   3  Mg def2-svp [ 10s 7p 1d | 4s 3p 1d ]
   4  O  def2-svp [ 7s 4p 1d | 3s 2p 1d ]
   5  O  def2-svp [ 7s 4p 1d | 3s 2p 1d ]
   6  O  def2-svp [ 7s 4p 1d | 3s 2p 1d ]
   7  O  def2-svp [ 7s 4p 1d | 3s 2p 1d ]
   8  O  def2-svp [ 7s 4p 1d | 3s 2p 1d ]
 
 Basis functions:
            1             2             3             4             5             6             7             8             9            10
    0    1C1s          1C2s          1C3s          1C1pz         1C1py         1C1px         1C2pz         1C2py         1C2px         1C1d-2    
    1    1C1d-1        1C1d0         1C1d+1        1C1d+2        2O1s          2O2s          2O3s          2O1pz         2O1py         2O1px     
    2    2O2pz         2O2py         2O2px         2O1d-2        2O1d-1        2O1d0         2O1d+1        2O1d+2        3Mg1s         3Mg2s     
    3    3Mg3s         3Mg4s         3Mg1pz        3Mg1py        3Mg1px        3Mg2pz        3Mg2py        3Mg2px        3Mg3pz        3Mg3py    
    4    3Mg3px        3Mg1d-2       3Mg1d-1       3Mg1d0        3Mg1d+1       3Mg1d+2       4O1s          4O2s          4O3s          4O1pz     
    5    4O1py         4O1px         4O2pz         4O2py         4O2px         4O1d-2        4O1d-1        4O1d0         4O1d+1        4O1d+2    
    6    5O1s          5O2s          5O3s          5O1pz         5O1py         5O1px         5O2pz         5O2py         5O2px         5O1d-2    
    7    5O1d-1        5O1d0         5O1d+1        5O1d+2        6O1s          6O2s          6O3s          6O1pz         6O1py         6O1px     
    8    6O2pz         6O2py         6O2px         6O1d-2        6O1d-1        6O1d0         6O1d+1        6O1d+2        7O1s          7O2s      
    9    7O3s          7O1pz         7O1py         7O1px         7O2pz         7O2py         7O2px         7O1d-2        7O1d-1        7O1d0     
   10    7O1d+1        7O1d+2        8O1s          8O2s          8O3s          8O1pz         8O1py         8O1px         8O2pz         8O2py     
   11    8O2px         8O1d-2        8O1d-1        8O1d0         8O1d+1        8O1d+2    
 
 Maximum number of basis functions per shell:   50
 Total number of basis functions:    116
 
 
 Character table for point group C1:
 
          E  
    A     1
 
 Number of basis functions per irrep:
    A     381
 
 
 Calculation of overlap integrals...
[...]
    1    1C1py         1C1px         1C2pz         1C2py         1C2px         1C3pz         1C3py         1C3px         1C4pz         1C4py     
    2    1C4px         1C5pz         1C5py         1C5px         1C6pz         1C6py         1C6px         1C7pz         1C7py         1C7px     
    3    1C1d-2        1C1d-1        1C1d0         1C1d+1        1C1d+2        1C2d-2        1C2d-1        1C2d0         1C2d+1        1C2d+2    
    4    1C3d-2        1C3d-1        1C3d0         1C3d+1        1C3d+2        1C4d-2        1C4d-1        1C4d0         1C4d+1        1C4d+2    
    5    1C5d-2        1C5d-1        1C5d0         1C5d+1        1C5d+2        1C6d-2        1C6d-1        1C6d0         1C6d+1        1C6d+2    
    6    1C1f-3        1C1f-2        1C1f-1        1C1f0         1C1f+1        1C1f+2        1C1f+3        1C2f-3        1C2f-2        1C2f-1    
    7    1C2f0         1C2f+1        1C2f+2        1C2f+3        1C3f-3        1C3f-2        1C3f-1        1C3f0         1C3f+1        1C3f+2    
    8    1C3f+3        1C4f-3        1C4f-2        1C4f-1        1C4f0         1C4f+1        1C4f+2        1C4f+3        1C1g-4        1C1g-3    
    9    1C1g-2        1C1g-1        1C1g0         1C1g+1        1C1g+2        1C1g+3        1C1g+4        1C2g-4        1C2g-3        1C2g-2    
   10    1C2g-1        1C2g0         1C2g+1        1C2g+2        1C2g+3        1C2g+4        2O1s          2O2s          2O3s          2O4s      
   11    2O5s          2O6s          2O7s          2O8s          2O9s          2O1pz         2O1py         2O1px         2O2pz         2O2py     
   12    2O2px         2O3pz         2O3py         2O3px         2O4pz         2O4py         2O4px         2O5pz         2O5py         2O5px     
   13    2O6pz         2O6py         2O6px         2O7pz         2O7py         2O7px         2O1d-2        2O1d-1        2O1d0         2O1d+1    
   14    2O1d+2        2O2d-2        2O2d-1        2O2d0         2O2d+1        2O2d+2        2O3d-2        2O3d-1        2O3d0         2O3d+1    
   15    2O3d+2        2O4d-2        2O4d-1        2O4d0         2O4d+1        2O4d+2        2O5d-2        2O5d-1        2O5d0         2O5d+1    
   16    2O5d+2        2O6d-2        2O6d-1        2O6d0         2O6d+1        2O6d+2        2O1f-3        2O1f-2        2O1f-1        2O1f0     
   17    2O1f+1        2O1f+2        2O1f+3        2O2f-3        2O2f-2        2O2f-1        2O2f0         2O2f+1        2O2f+2        2O2f+3    
   18    2O3f-3        2O3f-2        2O3f-1        2O3f0         2O3f+1        2O3f+2        2O3f+3        2O4f-3        2O4f-2        2O4f-1    
   19    2O4f0         2O4f+1        2O4f+2        2O4f+3        2O1g-4        2O1g-3        2O1g-2        2O1g-1        2O1g0         2O1g+1    
   20    2O1g+2        2O1g+3        2O1g+4        2O2g-4        2O2g-3        2O2g-2        2O2g-1        2O2g0         2O2g+1        2O2g+2    
   21    2O2g+3        2O2g+4        3Mg1s         3Mg2s         3Mg3s         3Mg4s         3Mg5s         3Mg6s         3Mg7s         3Mg8s     
   22    3Mg9s         3Mg10s        3Mg11s        3Mg12s        3Mg13s        3Mg14s        3Mg1pz        3Mg1py        3Mg1px        3Mg2pz    
   23    3Mg2py        3Mg2px        3Mg3pz        3Mg3py        3Mg3px        3Mg4pz        3Mg4py        3Mg4px        3Mg5pz        3Mg5py    
   24    3Mg5px        3Mg6pz        3Mg6py        3Mg6px        3Mg7pz        3Mg7py        3Mg7px        3Mg8pz        3Mg8py        3Mg8px    
   25    3Mg9pz        3Mg9py        3Mg9px        3Mg10pz       3Mg10py       3Mg10px       3Mg11pz       3Mg11py       3Mg11px       3Mg12pz   
   26    3Mg12py       3Mg12px       3Mg1d-2       3Mg1d-1       3Mg1d0        3Mg1d+1       3Mg1d+2       3Mg2d-2       3Mg2d-1       3Mg2d0    
   27    3Mg2d+1       3Mg2d+2       3Mg3d-2       3Mg3d-1       3Mg3d0        3Mg3d+1       3Mg3d+2       3Mg4d-2       3Mg4d-1       3Mg4d0    
   28    3Mg4d+1       3Mg4d+2       3Mg5d-2       3Mg5d-1       3Mg5d0        3Mg5d+1       3Mg5d+2       3Mg6d-2       3Mg6d-1       3Mg6d0    
   29    3Mg6d+1       3Mg6d+2       3Mg7d-2       3Mg7d-1       3Mg7d0        3Mg7d+1       3Mg7d+2       3Mg8d-2       3Mg8d-1       3Mg8d0    
   30    3Mg8d+1       3Mg8d+2       3Mg9d-2       3Mg9d-1       3Mg9d0        3Mg9d+1       3Mg9d+2       3Mg10d-2      3Mg10d-1      3Mg10d0   
   31    3Mg10d+1      3Mg10d+2      3Mg1f-3       3Mg1f-2       3Mg1f-1       3Mg1f0        3Mg1f+1       3Mg1f+2       3Mg1f+3       3Mg2f-3   
   32    3Mg2f-2       3Mg2f-1       3Mg2f0        3Mg2f+1       3Mg2f+2       3Mg2f+3       3Mg3f-3       3Mg3f-2       3Mg3f-1       3Mg3f0    
   33    3Mg3f+1       3Mg3f+2       3Mg3f+3       3Mg4f-3       3Mg4f-2       3Mg4f-1       3Mg4f0        3Mg4f+1       3Mg4f+2       3Mg4f+3   
   34    3Mg5f-3       3Mg5f-2       3Mg5f-1       3Mg5f0        3Mg5f+1       3Mg5f+2       3Mg5f+3       3Mg6f-3       3Mg6f-2       3Mg6f-1   
   35    3Mg6f0        3Mg6f+1       3Mg6f+2       3Mg6f+3       3Mg7f-3       3Mg7f-2       3Mg7f-1       3Mg7f0        3Mg7f+1       3Mg7f+2   
   36    3Mg7f+3       3Mg1g-4       3Mg1g-3       3Mg1g-2       3Mg1g-1       3Mg1g0        3Mg1g+1       3Mg1g+2       3Mg1g+3       3Mg1g+4   
   37    3Mg2g-4       3Mg2g-3       3Mg2g-2       3Mg2g-1       3Mg2g0        3Mg2g+1       3Mg2g+2       3Mg2g+3       3Mg2g+4       3Mg3g-4   
   38    3Mg3g-3       3Mg3g-2       3Mg3g-1       3Mg3g0        3Mg3g+1       3Mg3g+2       3Mg3g+3       3Mg3g+4       4O1s          4O2s      
   39    4O3s          4O4s          4O5s          4O6s          4O7s          4O8s          4O9s          4O1pz         4O1py         4O1px     
   40    4O2pz         4O2py         4O2px         4O3pz         4O3py         4O3px         4O4pz         4O4py         4O4px         4O5pz     
   41    4O5py         4O5px         4O6pz         4O6py         4O6px         4O7pz         4O7py         4O7px         4O1d-2        4O1d-1    
   42    4O1d0         4O1d+1        4O1d+2        4O2d-2        4O2d-1        4O2d0         4O2d+1        4O2d+2        4O3d-2        4O3d-1    
   43    4O3d0         4O3d+1        4O3d+2        4O4d-2        4O4d-1        4O4d0         4O4d+1        4O4d+2        4O5d-2        4O5d-1    
   44    4O5d0         4O5d+1        4O5d+2        4O6d-2        4O6d-1        4O6d0         4O6d+1        4O6d+2        4O1f-3        4O1f-2    
   45    4O1f-1        4O1f0         4O1f+1        4O1f+2        4O1f+3        4O2f-3        4O2f-2        4O2f-1        4O2f0         4O2f+1    
   46    4O2f+2        4O2f+3        4O3f-3        4O3f-2        4O3f-1        4O3f0         4O3f+1        4O3f+2        4O3f+3        4O4f-3    
   47    4O4f-2        4O4f-1        4O4f0         4O4f+1        4O4f+2        4O4f+3        4O1g-4        4O1g-3        4O1g-2        4O1g-1    
   48    4O1g0         4O1g+1        4O1g+2        4O1g+3        4O1g+4        4O2g-4        4O2g-3        4O2g-2        4O2g-1        4O2g0     
   49    4O2g+1        4O2g+2        4O2g+3        4O2g+4        5O1s          5O2s          5O3s          5O4s          5O5s          5O6s      
   50    5O7s          5O8s          5O9s          5O1pz         5O1py         5O1px         5O2pz         5O2py         5O2px         5O3pz     
   51    5O3py         5O3px         5O4pz         5O4py         5O4px         5O5pz         5O5py         5O5px         5O6pz         5O6py     
   52    5O6px         5O7pz         5O7py         5O7px         5O1d-2        5O1d-1        5O1d0         5O1d+1        5O1d+2        5O2d-2    
   53    5O2d-1        5O2d0         5O2d+1        5O2d+2        5O3d-2        5O3d-1        5O3d0         5O3d+1        5O3d+2        5O4d-2    
   54    5O4d-1        5O4d0         5O4d+1        5O4d+2        5O5d-2        5O5d-1        5O5d0         5O5d+1        5O5d+2        5O6d-2    
   55    5O6d-1        5O6d0         5O6d+1        5O6d+2        5O1f-3        5O1f-2        5O1f-1        5O1f0         5O1f+1        5O1f+2    
   56    5O1f+3        5O2f-3        5O2f-2        5O2f-1        5O2f0         5O2f+1        5O2f+2        5O2f+3        5O3f-3        5O3f-2    
   57    5O3f-1        5O3f0         5O3f+1        5O3f+2        5O3f+3        5O4f-3        5O4f-2        5O4f-1        5O4f0         5O4f+1    
   58    5O4f+2        5O4f+3        5O1g-4        5O1g-3        5O1g-2        5O1g-1        5O1g0         5O1g+1        5O1g+2        5O1g+3    
   59    5O1g+4        5O2g-4        5O2g-3        5O2g-2        5O2g-1        5O2g0         5O2g+1        5O2g+2        5O2g+3        5O2g+4    
   60    6O1s          6O2s          6O3s          6O4s          6O5s          6O6s          6O7s          6O8s          6O9s          6O1pz     
   61    6O1py         6O1px         6O2pz         6O2py         6O2px         6O3pz         6O3py         6O3px         6O4pz         6O4py     
   62    6O4px         6O5pz         6O5py         6O5px         6O6pz         6O6py         6O6px         6O7pz         6O7py         6O7px     
   63    6O1d-2        6O1d-1        6O1d0         6O1d+1        6O1d+2        6O2d-2        6O2d-1        6O2d0         6O2d+1        6O2d+2    
   64    6O3d-2        6O3d-1        6O3d0         6O3d+1        6O3d+2        6O4d-2        6O4d-1        6O4d0         6O4d+1        6O4d+2    
   65    6O5d-2        6O5d-1        6O5d0         6O5d+1        6O5d+2        6O6d-2        6O6d-1        6O6d0         6O6d+1        6O6d+2    
   66    6O1f-3        6O1f-2        6O1f-1        6O1f0         6O1f+1        6O1f+2        6O1f+3        6O2f-3        6O2f-2        6O2f-1    
   67    6O2f0         6O2f+1        6O2f+2        6O2f+3        6O3f-3        6O3f-2        6O3f-1        6O3f0         6O3f+1        6O3f+2    
   68    6O3f+3        6O4f-3        6O4f-2        6O4f-1        6O4f0         6O4f+1        6O4f+2        6O4f+3        6O1g-4        6O1g-3    
   69    6O1g-2        6O1g-1        6O1g0         6O1g+1        6O1g+2        6O1g+3        6O1g+4        6O2g-4        6O2g-3        6O2g-2    
   70    6O2g-1        6O2g0         6O2g+1        6O2g+2        6O2g+3        6O2g+4        7O1s          7O2s          7O3s          7O4s      
   71    7O5s          7O6s          7O7s          7O8s          7O9s          7O1pz         7O1py         7O1px         7O2pz         7O2py     
   72    7O2px         7O3pz         7O3py         7O3px         7O4pz         7O4py         7O4px         7O5pz         7O5py         7O5px     
   73    7O6pz         7O6py         7O6px         7O7pz         7O7py         7O7px         7O1d-2        7O1d-1        7O1d0         7O1d+1    
   74    7O1d+2        7O2d-2        7O2d-1        7O2d0         7O2d+1        7O2d+2        7O3d-2        7O3d-1        7O3d0         7O3d+1    
   75    7O3d+2        7O4d-2        7O4d-1        7O4d0         7O4d+1        7O4d+2        7O5d-2        7O5d-1        7O5d0         7O5d+1    
   76    7O5d+2        7O6d-2        7O6d-1        7O6d0         7O6d+1        7O6d+2        7O1f-3        7O1f-2        7O1f-1        7O1f0     
   77    7O1f+1        7O1f+2        7O1f+3        7O2f-3        7O2f-2        7O2f-1        7O2f0         7O2f+1        7O2f+2        7O2f+3    
   78    7O3f-3        7O3f-2        7O3f-1        7O3f0         7O3f+1        7O3f+2        7O3f+3        7O4f-3        7O4f-2        7O4f-1    
   79    7O4f0         7O4f+1        7O4f+2        7O4f+3        7O1g-4        7O1g-3        7O1g-2        7O1g-1        7O1g0         7O1g+1    
   80    7O1g+2        7O1g+3        7O1g+4        7O2g-4        7O2g-3        7O2g-2        7O2g-1        7O2g0         7O2g+1        7O2g+2    
   81    7O2g+3        7O2g+4        8O1s          8O2s          8O3s          8O4s          8O5s          8O6s          8O7s          8O8s      
   82    8O9s          8O1pz         8O1py         8O1px         8O2pz         8O2py         8O2px         8O3pz         8O3py         8O3px     
   83    8O4pz         8O4py         8O4px         8O5pz         8O5py         8O5px         8O6pz         8O6py         8O6px         8O7pz     
   84    8O7py         8O7px         8O1d-2        8O1d-1        8O1d0         8O1d+1        8O1d+2        8O2d-2        8O2d-1        8O2d0     
   85    8O2d+1        8O2d+2        8O3d-2        8O3d-1        8O3d0         8O3d+1        8O3d+2        8O4d-2        8O4d-1        8O4d0     
   86    8O4d+1        8O4d+2        8O5d-2        8O5d-1        8O5d0         8O5d+1        8O5d+2        8O6d-2        8O6d-1        8O6d0     
   87    8O6d+1        8O6d+2        8O1f-3        8O1f-2        8O1f-1        8O1f0         8O1f+1        8O1f+2        8O1f+3        8O2f-3    
   88    8O2f-2        8O2f-1        8O2f0         8O2f+1        8O2f+2        8O2f+3        8O3f-3        8O3f-2        8O3f-1        8O3f0     
   89    8O3f+1        8O3f+2        8O3f+3        8O4f-3        8O4f-2        8O4f-1        8O4f0         8O4f+1        8O4f+2        8O4f+3    
   90    8O1g-4        8O1g-3        8O1g-2        8O1g-1        8O1g0         8O1g+1        8O1g+2        8O1g+3        8O1g+4        8O2g-4    
   91    8O2g-3        8O2g-2        8O2g-1        8O2g0         8O2g+1        8O2g+2        8O2g+3        8O2g+4    
 
 Maximum number of basis functions per shell:   50
 Total number of basis functions:    918
 
 
 Old basis set for SCF restart
 
   1  C  def2-svp [ 7s 4p 1d | 3s 2p 1d ]
   2  O  def2-svp [ 7s 4p 1d | 3s 2p 1d ]
   3  Mg def2-svp [ 10s 7p 1d | 4s 3p 1d ]
   4  O  def2-svp [ 7s 4p 1d | 3s 2p 1d ]
   5  O  def2-svp [ 7s 4p 1d | 3s 2p 1d ]
   6  O  def2-svp [ 7s 4p 1d | 3s 2p 1d ]
   7  O  def2-svp [ 7s 4p 1d | 3s 2p 1d ]
   8  O  def2-svp [ 7s 4p 1d | 3s 2p 1d ]
 
 Basis functions:
            1             2             3             4             5             6             7             8             9            10
    0    1C1s          1C2s          1C3s          1C1pz         1C1py         1C1px         1C2pz         1C2py         1C2px         1C1d-2    
    1    1C1d-1        1C1d0         1C1d+1        1C1d+2        2O1s          2O2s          2O3s          2O1pz         2O1py         2O1px     
    2    2O2pz         2O2py         2O2px         2O1d-2        2O1d-1        2O1d0         2O1d+1        2O1d+2        3Mg1s         3Mg2s     
    3    3Mg3s         3Mg4s         3Mg1pz        3Mg1py        3Mg1px        3Mg2pz        3Mg2py        3Mg2px        3Mg3pz        3Mg3py    
    4    3Mg3px        3Mg1d-2       3Mg1d-1       3Mg1d0        3Mg1d+1       3Mg1d+2       4O1s          4O2s          4O3s          4O1pz     
    5    4O1py         4O1px         4O2pz         4O2py         4O2px         4O1d-2        4O1d-1        4O1d0         4O1d+1        4O1d+2    
    6    5O1s          5O2s          5O3s          5O1pz         5O1py         5O1px         5O2pz         5O2py         5O2px         5O1d-2    
    7    5O1d-1        5O1d0         5O1d+1        5O1d+2        6O1s          6O2s          6O3s          6O1pz         6O1py         6O1px     
    8    6O2pz         6O2py         6O2px         6O1d-2        6O1d-1        6O1d0         6O1d+1        6O1d+2        7O1s          7O2s      
    9    7O3s          7O1pz         7O1py         7O1px         7O2pz         7O2py         7O2px         7O1d-2        7O1d-1        7O1d0     
   10    7O1d+1        7O1d+2        8O1s          8O2s          8O3s          8O1pz         8O1py         8O1px         8O2pz         8O2py     
   11    8O2px         8O1d-2        8O1d-1        8O1d0         8O1d+1        8O1d+2    
 
 Maximum number of basis functions per shell:   50
 Total number of basis functions:    116
 
 
 Calculation of prescreening integrals...
 CPU time [min]:     0.824                   Wall time [min]:     0.028
 
 Calculation of two-center Coulomb integrals...
   1% done.
  12% done.
  24% done.
  36% done.
  47% done.
  59% done.
  70% done.
  84% done.
  96% done.
 100% done.
 CPU time [min]:     1.025                   Wall time [min]:     0.034
 
 Calculation of inverse square root of the two-center integral matrix...
 CPU time [min]:     1.265                   Wall time [min]:     0.048
 
 Calculation of three-center Coulomb integrals...
   1% done.
  13% done.
  27% done.
  41% done.
  52% done.
  65% done.
  77% done.
  93% done.
 100% done.
 CPU time [min]:     2.642                   Wall time [min]:     0.222

 ************************ 2023-05-25 16:49:11 *************************
 Executing drpa...

 Three-index integral transformation
 
 Allocation of 160.0 Gbytes of memory...
 Minimal memory requirement for (ai|P) and (ij|P) integrals:       11.8 MB

 Calculating (ai|P) and (ij|P) integrals...
 Number of integral batches:    1
 Occupied indices per batch:    5
 
 Transforming integrals of batch 1...
 CPU time [min]:     0.898                   Wall time [min]:     0.183

 Calculating (ab|P) integrals...
 Minimal memory requirement for (ab|P) integrals:        9.2 MB
 Number of integral batches:    1
 Virtual indices per batch:   374

 Transforming integrals of batch 1...
 CPU time [min]:     2.012                   Wall time [min]:     0.291

 ************************ 2023-05-25 16:49:33 *************************
 Executing ccsd...

 Allocation of 160.0 Gbytes of memory...

 Direct DF-CCSD(T) calculation
 
 Convergence criterion:  1.0E-06
 
 Number of occupied/virtual/auxiliary orbitals:     5   374   918
   4632.45 MB is the minimal memory requirement for (T)
   1104.88 MB is the minimal memory requirement for CCSD
 
 Reference energy [au]:            -112.778622085347
 T1 contribution [au]:                0.000000000000
 Same spin MP2 energy [au]:          -0.092138730520
 Opposite spin MP2 energy [au]:      -0.272192973748
 MP2 correlation energy [au]:        -0.364331704269
 Total MP2 energy [au]:            -113.142953789615
 
 
 CPU time [min]:     0.566                   Wall time [min]:     0.084
 
 Starting CCSD iterations...
 
                     Residual norm          Energy
 Iteration  1        0.217319408857     -113.128936380989
 Iteration  2        0.073041262769     -113.141531235361
 Iteration  3        0.025323475623     -113.145177732430
 Iteration  4        0.007671214426     -113.144587922622
 Iteration  5        0.002336859874     -113.144665253573
 Iteration  6        0.000483734391     -113.144679503006
 Iteration  7        0.000128296787     -113.144677393948
 Iteration  8        0.000038672197     -113.144677661828
 Iteration  9        0.000012570778     -113.144677604364
 Iteration 10        0.000003637971     -113.144677417273
 
 CCSD iteration has converged in 10 steps.
    76129.81 MB memory was utilized by CCSD
 
 T1 diagnostic:      1.927E-02            D1 diagnostic:      4.031E-02
 
 T1 contribution [au]:                                  0.000000000000
 Opposite spin CCSD energy [au]:                       -0.287516043270
 Same spin CCSD energy [au]:                           -0.078539288657
 CCSD correlation energy [au]:                         -0.366055331927
 Total CCSD energy [au]:                             -113.144677417273
 
 CPU time [min]:   147.000                   Wall time [min]:     4.336
 
 Calculation of (T) correction...
 
 
     4667.69 MB memory is utilized for (T)

 0%       25%       50%       75%       100%
 |---------|---------|---------|---------| 
 
 (T) correction [au]:                                    -0.018171009888
 CCSD(T) correlation energy [au]:                        -0.384226341815
 Total CCSD(T) energy [au]:                            -113.162848427162
 
 CPU time [min]:   155.379                   Wall time [min]:     4.691
 
 ************************ 2023-05-25 16:54:16 *************************
                      Normal termination of mrcc.
 **********************************************************************
