 **********************************************************************
                          MRCC program system
 **********************************************************************
 
                              Written by
     Mihaly Kallay, Peter R. Nagy, David Mester, Laszlo Gyevi-Nagy,
        Jozsef Csoka, P. Bernat Szabo, Zoltan Rolik, Gyula Samu,
     Jozsef Csontos, Bence Hegely, Adam Ganyecz, Istvan Ladjanszki,
       Lorant Szegedy, Bence Ladoczki, Klara Petrov, Mate Farkas,
                    Pal D. Mezei, and Reka A. Horvath
 
        Department of Physical Chemistry and Materials Science
            Budapest University of Technology and Economics
                  Budapest P.O.Box 91, H-1521 Hungary
 
                              www.mrcc.hu
 
                      Release date: March 18, 2022

 ************************ 2022-11-14 01:12:53 *************************
 Executing minp...

 Reading input from MINP...
 
 Input file:
 
calc=LNO-CCSD(T)
scftype=rhf
verbosity=3
mem=150GB
symm=off
unit=angs
scfiguess=small
scfmaxit=1000
scfalg=locfit1


lcorthr=tight
bpedo=0.99999
ccmaxit=400
usedisk=0
ccsdalg=dfdirect
ccsdthreads=4
ccsdmkl=thr
ptthreads=4

charge=-24
core=24

basis=special
aug-cc-pVTZ
aug-cc-pVTZ
bse_CVTZ
aug-cc-pVTZ
aug-cc-pVTZ
aug-cc-pVTZ
aug-cc-pVTZ
aug-cc-pVTZ
bse_CVTZ
bse_CVTZ
bse_CVTZ
bse_CVTZ
aug-cc-pVTZ
aug-cc-pVTZ
aug-cc-pVTZ
aug-cc-pVTZ
aug-cc-pVTZ
aug-cc-pVTZ
aug-cc-pVTZ
aug-cc-pVTZ
aug-cc-pVTZ
aug-cc-pVTZ
aug-cc-pVTZ
aug-cc-pVTZ
nothing
nothing
nothing
nothing
nothing
nothing
nothing
nothing
nothing
nothing
nothing
nothing
nothing
nothing
nothing
nothing
nothing
nothing
nothing
nothing
nothing
nothing
nothing
nothing
nothing
nothing
nothing
nothing
nothing
nothing
nothing
nothing
nothing
nothing
nothing
nothing
nothing
nothing
nothing
nothing
nothing
nothing
nothing
nothing
nothing
nothing
nothing
nothing
nothing
nothing
nothing
nothing
nothing

basis_sm=special
def2-SVP
def2-SVP
def2-SVP
def2-SVP
def2-SVP
def2-SVP
def2-SVP
def2-SVP
def2-SVP
def2-SVP
def2-SVP
def2-SVP
def2-SVP
def2-SVP
def2-SVP
def2-SVP
def2-SVP
def2-SVP
def2-SVP
def2-SVP
def2-SVP
def2-SVP
def2-SVP
def2-SVP
nothing
nothing
nothing
nothing
nothing
nothing
nothing
nothing
nothing
nothing
nothing
nothing
nothing
nothing
nothing
nothing
nothing
nothing
nothing
nothing
nothing
nothing
nothing
nothing
nothing
nothing
nothing
nothing
nothing
nothing
nothing
nothing
nothing
nothing
nothing
nothing
nothing
nothing
nothing
nothing
nothing
nothing
nothing
nothing
nothing
nothing
nothing
nothing
nothing
nothing
nothing
nothing
nothing

dfbasis_scf=special
def2-QZVPP-RI-JK
def2-QZVPP-RI-JK
def2-QZVPP-RI-JK
def2-QZVPP-RI-JK
def2-QZVPP-RI-JK
def2-QZVPP-RI-JK
def2-QZVPP-RI-JK
def2-QZVPP-RI-JK
def2-QZVPP-RI-JK
def2-QZVPP-RI-JK
def2-QZVPP-RI-JK
def2-QZVPP-RI-JK
def2-QZVPP-RI-JK
def2-QZVPP-RI-JK
def2-QZVPP-RI-JK
def2-QZVPP-RI-JK
def2-QZVPP-RI-JK
def2-QZVPP-RI-JK
def2-QZVPP-RI-JK
def2-QZVPP-RI-JK
def2-QZVPP-RI-JK
def2-QZVPP-RI-JK
def2-QZVPP-RI-JK
def2-QZVPP-RI-JK
nothing
nothing
nothing
nothing
nothing
nothing
nothing
nothing
nothing
nothing
nothing
nothing
nothing
nothing
nothing
nothing
nothing
nothing
nothing
nothing
nothing
nothing
nothing
nothing
nothing
nothing
nothing
nothing
nothing
nothing
nothing
nothing
nothing
nothing
nothing
nothing
nothing
nothing
nothing
nothing
nothing
nothing
nothing
nothing
nothing
nothing
nothing
nothing
nothing
nothing
nothing
nothing
nothing

dfbasis_cor=special
aug-cc-pVTZ-RI
aug-cc-pVTZ-RI
bse_CVTZ_mp2fit
aug-cc-pVTZ-RI
aug-cc-pVTZ-RI
aug-cc-pVTZ-RI
aug-cc-pVTZ-RI
aug-cc-pVTZ-RI
bse_CVTZ_mp2fit
bse_CVTZ_mp2fit
bse_CVTZ_mp2fit
bse_CVTZ_mp2fit
aug-cc-pVTZ-RI
aug-cc-pVTZ-RI
aug-cc-pVTZ-RI
aug-cc-pVTZ-RI
aug-cc-pVTZ-RI
aug-cc-pVTZ-RI
aug-cc-pVTZ-RI
aug-cc-pVTZ-RI
aug-cc-pVTZ-RI
aug-cc-pVTZ-RI
aug-cc-pVTZ-RI
aug-cc-pVTZ-RI
nothing
nothing
nothing
nothing
nothing
nothing
nothing
nothing
nothing
nothing
nothing
nothing
nothing
nothing
nothing
nothing
nothing
nothing
nothing
nothing
nothing
nothing
nothing
nothing
nothing
nothing
nothing
nothing
nothing
nothing
nothing
nothing
nothing
nothing
nothing
nothing
nothing
nothing
nothing
nothing
nothing
nothing
nothing
nothing
nothing
nothing
nothing
nothing
nothing
nothing
nothing
nothing
nothing

ecp=special
none
none
none
none
none
none
none
none
none
none
none
none
none
none
none
none
none
none
none
none
none
none
none
none
ECP-12
ECP-12
ECP-12
ECP-12
ECP-12
ECP-12
ECP-12
ECP-12
ECP-12
ECP-12
ECP-12
ECP-12
ECP-12
ECP-12
ECP-12
ECP-12
ECP-12
ECP-12
ECP-12
ECP-12
ECP-12
ECP-12
ECP-12
ECP-12
ECP-12
ECP-12
ECP-12
ECP-12
ECP-12
ECP-12
ECP-12
ECP-12
ECP-12
ECP-12
ECP-12
ECP-12
ECP-12
ECP-12
ECP-12
ECP-12
ECP-12
ECP-12
ECP-12
ECP-12
ECP-12
ECP-12
ECP-12
ECP-12
ECP-12
ECP-12
ECP-12
ECP-12
ECP-12

unit=angs
geom=xyz
77
C1 O1 Mg5 O17 ECP53
C     0.00000000000    0.00000000000    2.43329433571
O     0.00000000000    0.00000000000    3.58011415037
Mg    0.00000000000    0.00000000000   -0.00772802266
O    -2.12018425659    0.00000000000   -0.00205593177
O     0.00000000000    2.12018425659   -0.00205593177
O     2.12018425659    0.00000000000   -0.00205593177
O     0.00000000000   -2.12018425659   -0.00205593177
O     0.00000000000    0.00000000000   -2.14902768389
Mg   -2.11144262254    2.11144262254   -0.05140086690
Mg    2.11144262254    2.11144262254   -0.05140086690
Mg    2.11144262254   -2.11144262254   -0.05140086690
Mg   -2.11144262254   -2.11144262254   -0.05140086690
O    -2.11070451449    2.11070451449   -2.15696791928
O     2.11070451449    2.11070451449   -2.15696791928
O     2.11070451449   -2.11070451449   -2.15696791928
O    -2.11070451449   -2.11070451449   -2.15696791928
O    -4.22049352791    2.11209139723    0.00000000000
O    -2.11209139723    4.22049352791    0.00000000000
O     2.11209139723    4.22049352791    0.00000000000
O     4.22049352791    2.11209139723    0.00000000000
O     4.22049352791   -2.11209139723    0.00000000000
O     2.11209139723   -4.22049352791    0.00000000000
O    -2.11209139723   -4.22049352791    0.00000000000
O    -4.22049352791   -2.11209139723    0.00000000000
Mg   -2.10705287155    0.00000000000   -2.14928009216
Mg    0.00000000000    2.10705287155   -2.14928009216
Mg    2.10705287155    0.00000000000   -2.14928009216
Mg    0.00000000000   -2.10705287155   -2.14928009216
Mg   -4.22049352791    0.00000000000   -0.05042534122
Mg    0.00000000000    4.22049352791   -0.05042534122
Mg    4.22049352791    0.00000000000   -0.05042534122
Mg    0.00000000000   -4.22049352791   -0.05042534122
Mg    0.00000000000    0.00000000000   -4.27562330794
Mg   -4.22049352791    2.10973412517   -2.15218714568
Mg   -2.10973412517    4.22049352791   -2.15218714568
Mg    2.10973412517    4.22049352791   -2.15218714568
Mg    4.22049352791    2.10973412517   -2.15218714568
Mg    4.22049352791   -2.10973412517   -2.15218714568
Mg    2.10973412517   -4.22049352791   -2.15218714568
Mg   -2.10973412517   -4.22049352791   -2.15218714568
Mg   -4.22049352791   -2.10973412517   -2.15218714568
Mg   -2.11024676395    2.11024676395   -4.27562330794
Mg    2.11024676395    2.11024676395   -4.27562330794
Mg    2.11024676395   -2.11024676395   -4.27562330794
Mg   -2.11024676395   -2.11024676395   -4.27562330794
Mg   -4.22049352791    4.22049352791   -0.04765173215
Mg    4.22049352791    4.22049352791   -0.04765173215
Mg    4.22049352791   -4.22049352791   -0.04765173215
Mg   -4.22049352791   -4.22049352791   -0.04765173215
Mg   -4.22049352791    0.00000000000   -4.27562330794
Mg    0.00000000000    4.22049352791   -4.27562330794
Mg    4.22049352791    0.00000000000   -4.27562330794
Mg    0.00000000000   -4.22049352791   -4.27562330794
Mg   -6.32954443328    2.11144262254   -0.05140086690
Mg   -2.11144262254    6.32954443328   -0.05140086690
Mg    2.11144262254    6.32954443328   -0.05140086690
Mg    6.32954443328    2.11144262254   -0.05140086690
Mg    6.32954443328   -2.11144262254   -0.05140086690
Mg    2.11144262254   -6.32954443328   -0.05140086690
Mg   -2.11144262254   -6.32954443328   -0.05140086690
Mg   -6.32954443328   -2.11144262254   -0.05140086690
Mg   -6.33393418427    0.00000000000   -2.14928009216
Mg    0.00000000000    6.33393418427   -2.14928009216
Mg    6.33393418427    0.00000000000   -2.14928009216
Mg    0.00000000000   -6.33393418427   -2.14928009216
Mg   -4.22049352791    4.22049352791   -4.27562330794
Mg    4.22049352791    4.22049352791   -4.27562330794
Mg    4.22049352791   -4.22049352791   -4.27562330794
Mg   -4.22049352791   -4.22049352791   -4.27562330794
Mg   -6.33125293065    4.22049352791   -2.15218714568
Mg   -4.22049352791    6.33125293065   -2.15218714568
Mg    4.22049352791    6.33125293065   -2.15218714568
Mg    6.33125293065    4.22049352791   -2.15218714568
Mg    6.33125293065   -4.22049352791   -2.15218714568
Mg    4.22049352791   -6.33125293065   -2.15218714568
Mg   -4.22049352791   -6.33125293065   -2.15218714568
Mg   -6.33125293065   -4.22049352791   -2.15218714568



ghost=serialno


qmmm=Amber
pointcharges
10169
     -2.10705287155    0.00000000000   -2.14928009216    2.00000000000
      0.00000000000    2.10705287155   -2.14928009216    2.00000000000
      2.10705287155    0.00000000000   -2.14928009216    2.00000000000
      0.00000000000   -2.10705287155   -2.14928009216    2.00000000000
     -4.22049352791    0.00000000000   -0.05042534122    2.00000000000
      0.00000000000    4.22049352791   -0.05042534122    2.00000000000
      4.22049352791    0.00000000000   -0.05042534122    2.00000000000
      0.00000000000   -4.22049352791   -0.05042534122    2.00000000000
      0.00000000000    0.00000000000   -4.27562330794    2.00000000000
     -4.22049352791    0.00000000000   -2.15902521756   -2.00000000000
      0.00000000000    4.22049352791   -2.15902521756   -2.00000000000
      4.22049352791    0.00000000000   -2.15902521756   -2.00000000000
      0.00000000000   -4.22049352791   -2.15902521756   -2.00000000000
     -2.11024676395    0.00000000000   -4.27562330794   -2.00000000000
      0.00000000000    2.11024676395   -4.27562330794   -2.00000000000
      2.11024676395    0.00000000000   -4.27562330794   -2.00000000000
      0.00000000000   -2.11024676395   -4.27562330794   -2.00000000000
     -4.22049352791    2.10973412517   -2.15218714568    2.00000000000
     -2.10973412517    4.22049352791   -2.15218714568    2.00000000000
      2.10973412517    4.22049352791   -2.15218714568    2.00000000000
      4.22049352791    2.10973412517   -2.15218714568    2.00000000000
      4.22049352791   -2.10973412517   -2.15218714568    2.00000000000
      2.10973412517   -4.22049352791   -2.15218714568    2.00000000000
     -2.10973412517   -4.22049352791   -2.15218714568    2.00000000000
     -4.22049352791   -2.10973412517   -2.15218714568    2.00000000000
     -2.11024676395    2.11024676395   -4.27562330794    2.00000000000
      2.11024676395    2.11024676395   -4.27562330794    2.00000000000
      2.11024676395   -2.11024676395   -4.27562330794    2.00000000000
     -2.11024676395   -2.11024676395   -4.27562330794    2.00000000000
     -4.22049352791    4.22049352791   -0.04765173215    2.00000000000
      4.22049352791    4.22049352791   -0.04765173215    2.00000000000
      4.22049352791   -4.22049352791   -0.04765173215    2.00000000000
     -4.22049352791   -4.22049352791   -0.04765173215    2.00000000000
     -4.22049352791    0.00000000000   -4.27562330794    2.00000000000
      0.00000000000    4.22049352791   -4.27562330794    2.00000000000
      4.22049352791    0.00000000000   -4.27562330794    2.00000000000
      0.00000000000   -4.22049352791   -4.27562330794    2.00000000000
     -6.32080279923    0.00000000000   -0.00205593177   -2.00000000000
      0.00000000000    6.32080279923   -0.00205593177   -2.00000000000
      6.32080279923    0.00000000000   -0.00205593177   -2.00000000000
      0.00000000000   -6.32080279923   -0.00205593177   -2.00000000000
     -4.22049352791    4.22049352791   -2.15801787533   -2.00000000000
      4.22049352791    4.22049352791   -2.15801787533   -2.00000000000
      4.22049352791   -4.22049352791   -2.15801787533   -2.00000000000
     -4.22049352791   -4.22049352791   -2.15801787533   -2.00000000000
     -4.22049352791    2.11024676395   -4.27562330794   -2.00000000000
     -2.11024676395    4.22049352791   -4.27562330794   -2.00000000000
      2.11024676395    4.22049352791   -4.27562330794   -2.00000000000
      4.22049352791    2.11024676395   -4.27562330794   -2.00000000000
      4.22049352791   -2.11024676395   -4.27562330794   -2.00000000000
      2.11024676395   -4.22049352791   -4.27562330794   -2.00000000000
     -2.11024676395   -4.22049352791   -4.27562330794   -2.00000000000
     -4.22049352791   -2.11024676395   -4.27562330794   -2.00000000000
     -6.32954443328    2.11144262254   -0.05140086690    2.00000000000
     -2.11144262254    6.32954443328   -0.05140086690    2.00000000000
      2.11144262254    6.32954443328   -0.05140086690    2.00000000000
      6.32954443328    2.11144262254   -0.05140086690    2.00000000000
      6.32954443328   -2.11144262254   -0.05140086690    2.00000000000
      2.11144262254   -6.32954443328   -0.05140086690    2.00000000000
     -2.11144262254   -6.32954443328   -0.05140086690    2.00000000000
     -6.32954443328   -2.11144262254   -0.05140086690    2.00000000000
     -6.33393418427    0.00000000000   -2.14928009216    2.00000000000
      0.00000000000    6.33393418427   -2.14928009216    2.00000000000
      6.33393418427    0.00000000000   -2.14928009216    2.00000000000
      0.00000000000   -6.33393418427   -2.14928009216    2.00000000000
     -6.33028254133    2.11070451449   -2.15696791928   -2.00000000000
     -2.11070451449    6.33028254133   -2.15696791928   -2.00000000000
      2.11070451449    6.33028254133   -2.15696791928   -2.00000000000
      6.33028254133    2.11070451449   -2.15696791928   -2.00000000000
      6.33028254133   -2.11070451449   -2.15696791928   -2.00000000000
      2.11070451449   -6.33028254133   -2.15696791928   -2.00000000000
     -2.11070451449   -6.33028254133   -2.15696791928   -2.00000000000
     -6.33028254133   -2.11070451449   -2.15696791928   -2.00000000000
     -4.22049352791    4.22049352791   -4.27562330794    2.00000000000
      4.22049352791    4.22049352791   -4.27562330794    2.00000000000
      4.22049352791   -4.22049352791   -4.27562330794    2.00000000000
     -4.22049352791   -4.22049352791   -4.27562330794    2.00000000000
     -6.32889565859    4.22049352791    0.00000000000   -2.00000000000
     -4.22049352791    6.32889565859    0.00000000000   -2.00000000000
      4.22049352791    6.32889565859    0.00000000000   -2.00000000000
      6.32889565859    4.22049352791    0.00000000000   -2.00000000000
      6.32889565859   -4.22049352791    0.00000000000   -2.00000000000
      4.22049352791   -6.32889565859    0.00000000000   -2.00000000000
     -4.22049352791   -6.32889565859    0.00000000000   -2.00000000000
     -6.32889565859   -4.22049352791    0.00000000000   -2.00000000000
     -6.33125293065    4.22049352791   -2.15218714568    2.00000000000
     -4.22049352791    6.33125293065   -2.15218714568    2.00000000000
      4.22049352791    6.33125293065   -2.15218714568    2.00000000000
      6.33125293065    4.22049352791   -2.15218714568    2.00000000000
      6.33125293065   -4.22049352791   -2.15218714568    2.00000000000
      4.22049352791   -6.33125293065   -2.15218714568    2.00000000000
     -4.22049352791   -6.33125293065   -2.15218714568    2.00000000000
     -6.33125293065   -4.22049352791   -2.15218714568    2.00000000000
      0.00000000000    0.00000000000   -6.38587007189   -2.00000000000
     -2.11024676395    0.00000000000   -6.38587007189    2.00000000000
      0.00000000000    2.11024676395   -6.38587007189    2.00000000000
      2.11024676395    0.00000000000   -6.38587007189    2.00000000000
      0.00000000000   -2.11024676395   -6.38587007189    2.00000000000
     -2.11024676395    2.11024676395   -6.38587007189   -2.00000000000
      2.11024676395    2.11024676395   -6.38587007189   -2.00000000000
      2.11024676395   -2.11024676395   -6.38587007189   -2.00000000000
     -2.11024676395   -2.11024676395   -6.38587007189   -2.00000000000
     -6.33074029186    0.00000000000   -4.27562330794   -2.00000000000
      0.00000000000    6.33074029186   -4.27562330794   -2.00000000000
      6.33074029186    0.00000000000   -4.27562330794   -2.00000000000
      0.00000000000   -6.33074029186   -4.27562330794   -2.00000000000
     -4.22049352791    0.00000000000   -6.38587007189   -2.00000000000
      0.00000000000    4.22049352791   -6.38587007189   -2.00000000000
      4.22049352791    0.00000000000   -6.38587007189   -2.00000000000
      0.00000000000   -4.22049352791   -6.38587007189   -2.00000000000
     -6.33074029186    2.11024676395   -4.27562330794    2.00000000000
     -2.11024676395    6.33074029186   -4.27562330794    2.00000000000
      2.11024676395    6.33074029186   -4.27562330794    2.00000000000
      6.33074029186    2.11024676395   -4.27562330794    2.00000000000
      6.33074029186   -2.11024676395   -4.27562330794    2.00000000000
      2.11024676395   -6.33074029186   -4.27562330794    2.00000000000
     -2.11024676395   -6.33074029186   -4.27562330794    2.00000000000
     -6.33074029186   -2.11024676395   -4.27562330794    2.00000000000
     -4.22049352791    2.11024676395   -6.38587007189    2.00000000000
     -2.11024676395    4.22049352791   -6.38587007189    2.00000000000
      2.11024676395    4.22049352791   -6.38587007189    2.00000000000
      4.22049352791    2.11024676395   -6.38587007189    2.00000000000
      4.22049352791   -2.11024676395   -6.38587007189    2.00000000000
      2.11024676395   -4.22049352791   -6.38587007189    2.00000000000
     -2.11024676395   -4.22049352791   -6.38587007189    2.00000000000
     -4.22049352791   -2.11024676395   -6.38587007189    2.00000000000
     -8.44098705582    0.00000000000   -0.00772802266    2.00000000000
      0.00000000000    8.44098705582   -0.00772802266    2.00000000000
      8.44098705582    0.00000000000   -0.00772802266    2.00000000000
      0.00000000000   -8.44098705582   -0.00772802266    2.00000000000
     -8.44098705582    2.12018425659   -0.00205593177   -2.00000000000
     -2.12018425659    8.44098705582   -0.00205593177   -2.00000000000
      2.12018425659    8.44098705582   -0.00205593177   -2.00000000000
      8.44098705582    2.12018425659   -0.00205593177   -2.00000000000
      8.44098705582   -2.12018425659   -0.00205593177   -2.00000000000
      2.12018425659   -8.44098705582   -0.00205593177   -2.00000000000
     -2.12018425659   -8.44098705582   -0.00205593177   -2.00000000000
     -8.44098705582   -2.12018425659   -0.00205593177   -2.00000000000
     -8.44098705582    0.00000000000   -2.14902768389   -2.00000000000
      0.00000000000    8.44098705582   -2.14902768389   -2.00000000000
      8.44098705582    0.00000000000   -2.14902768389   -2.00000000000
      0.00000000000   -8.44098705582   -2.14902768389   -2.00000000000
     -6.33074029186    4.22049352791   -4.27562330794   -2.00000000000
     -4.22049352791    6.33074029186   -4.27562330794   -2.00000000000
      4.22049352791    6.33074029186   -4.27562330794   -2.00000000000
      6.33074029186    4.22049352791   -4.27562330794   -2.00000000000
      6.33074029186   -4.22049352791   -4.27562330794   -2.00000000000
      4.22049352791   -6.33074029186   -4.27562330794   -2.00000000000
     -4.22049352791   -6.33074029186   -4.27562330794   -2.00000000000
     -6.33074029186   -4.22049352791   -4.27562330794   -2.00000000000
     -4.22049352791    4.22049352791   -6.38587007189   -2.00000000000
      4.22049352791    4.22049352791   -6.38587007189   -2.00000000000
      4.22049352791   -4.22049352791   -6.38587007189   -2.00000000000
     -4.22049352791   -4.22049352791   -6.38587007189   -2.00000000000
     -6.32954443328    6.32954443328   -0.05140086690    2.00000000000
      6.32954443328    6.32954443328   -0.05140086690    2.00000000000
      6.32954443328   -6.32954443328   -0.05140086690    2.00000000000
     -6.32954443328   -6.32954443328   -0.05140086690    2.00000000000
     -8.44098705582    2.10705287155   -2.14928009216    2.00000000000
     -2.10705287155    8.44098705582   -2.14928009216    2.00000000000
      2.10705287155    8.44098705582   -2.14928009216    2.00000000000
      8.44098705582    2.10705287155   -2.14928009216    2.00000000000
      8.44098705582   -2.10705287155   -2.14928009216    2.00000000000
      2.10705287155   -8.44098705582   -2.14928009216    2.00000000000
     -2.10705287155   -8.44098705582   -2.14928009216    2.00000000000
     -8.44098705582   -2.10705287155   -2.14928009216    2.00000000000
     -6.33074029186    0.00000000000   -6.38587007189    2.00000000000
      0.00000000000    6.33074029186   -6.38587007189    2.00000000000
      6.33074029186    0.00000000000   -6.38587007189    2.00000000000
      0.00000000000   -6.33074029186   -6.38587007189    2.00000000000
     -6.33028254133    6.33028254133   -2.15696791928   -2.00000000000
      6.33028254133    6.33028254133   -2.15696791928   -2.00000000000
      6.33028254133   -6.33028254133   -2.15696791928   -2.00000000000
     -6.33028254133   -6.33028254133   -2.15696791928   -2.00000000000
     -6.33074029186    2.11024676395   -6.38587007189   -2.00000000000
     -2.11024676395    6.33074029186   -6.38587007189   -2.00000000000
      2.11024676395    6.33074029186   -6.38587007189   -2.00000000000
      6.33074029186    2.11024676395   -6.38587007189   -2.00000000000
      6.33074029186   -2.11024676395   -6.38587007189   -2.00000000000
      2.11024676395   -6.33074029186   -6.38587007189   -2.00000000000
     -2.11024676395   -6.33074029186   -6.38587007189   -2.00000000000
     -6.33074029186   -2.11024676395   -6.38587007189   -2.00000000000
     -8.44098705582    4.22049352791   -0.05042534122    2.00000000000
     -4.22049352791    8.44098705582   -0.05042534122    2.00000000000
      4.22049352791    8.44098705582   -0.05042534122    2.00000000000
      8.44098705582    4.22049352791   -0.05042534122    2.00000000000
      8.44098705582   -4.22049352791   -0.05042534122    2.00000000000
      4.22049352791   -8.44098705582   -0.05042534122    2.00000000000
     -4.22049352791   -8.44098705582   -0.05042534122    2.00000000000
     -8.44098705582   -4.22049352791   -0.05042534122    2.00000000000
     -8.44098705582    0.00000000000   -4.27562330794    2.00000000000
      0.00000000000    8.44098705582   -4.27562330794    2.00000000000
      8.44098705582    0.00000000000   -4.27562330794    2.00000000000
      0.00000000000   -8.44098705582   -4.27562330794    2.00000000000
     -8.44098705582    4.22049352791   -2.15902521756   -2.00000000000
     -4.22049352791    8.44098705582   -2.15902521756   -2.00000000000
      4.22049352791    8.44098705582   -2.15902521756   -2.00000000000
      8.44098705582    4.22049352791   -2.15902521756   -2.00000000000
      8.44098705582   -4.22049352791   -2.15902521756   -2.00000000000
      4.22049352791   -8.44098705582   -2.15902521756   -2.00000000000
     -4.22049352791   -8.44098705582   -2.15902521756   -2.00000000000
     -8.44098705582   -4.22049352791   -2.15902521756   -2.00000000000
     -8.44098705582    2.11024676395   -4.27562330794   -2.00000000000
     -2.11024676395    8.44098705582   -4.27562330794   -2.00000000000
      2.11024676395    8.44098705582   -4.27562330794   -2.00000000000
      8.44098705582    2.11024676395   -4.27562330794   -2.00000000000
      8.44098705582   -2.11024676395   -4.27562330794   -2.00000000000
      2.11024676395   -8.44098705582   -4.27562330794   -2.00000000000
     -2.11024676395   -8.44098705582   -4.27562330794   -2.00000000000
     -8.44098705582   -2.11024676395   -4.27562330794   -2.00000000000
     -6.33074029186    6.33074029186   -4.27562330794    2.00000000000
      6.33074029186    6.33074029186   -4.27562330794    2.00000000000
      6.33074029186   -6.33074029186   -4.27562330794    2.00000000000
     -6.33074029186   -6.33074029186   -4.27562330794    2.00000000000
     -6.33074029186    4.22049352791   -6.38587007189    2.00000000000
     -4.22049352791    6.33074029186   -6.38587007189    2.00000000000
      4.22049352791    6.33074029186   -6.38587007189    2.00000000000
      6.33074029186    4.22049352791   -6.38587007189    2.00000000000
      6.33074029186   -4.22049352791   -6.38587007189    2.00000000000
      4.22049352791   -6.33074029186   -6.38587007189    2.00000000000
     -4.22049352791   -6.33074029186   -6.38587007189    2.00000000000
     -6.33074029186   -4.22049352791   -6.38587007189    2.00000000000
     -8.44098705582    4.22049352791   -4.27562330794    2.00000000000
     -4.22049352791    8.44098705582   -4.27562330794    2.00000000000
      4.22049352791    8.44098705582   -4.27562330794    2.00000000000
      8.44098705582    4.22049352791   -4.27562330794    2.00000000000
      8.44098705582   -4.22049352791   -4.27562330794    2.00000000000
      4.22049352791   -8.44098705582   -4.27562330794    2.00000000000
     -4.22049352791   -8.44098705582   -4.27562330794    2.00000000000
     -8.44098705582   -4.22049352791   -4.27562330794    2.00000000000
     -8.44098705582    6.32080279923   -0.00205593177   -2.00000000000
     -6.32080279923    8.44098705582   -0.00205593177   -2.00000000000
      6.32080279923    8.44098705582   -0.00205593177   -2.00000000000
      8.44098705582    6.32080279923   -0.00205593177   -2.00000000000
      8.44098705582   -6.32080279923   -0.00205593177   -2.00000000000
      6.32080279923   -8.44098705582   -0.00205593177   -2.00000000000
     -6.32080279923   -8.44098705582   -0.00205593177   -2.00000000000
     -8.44098705582   -6.32080279923   -0.00205593177   -2.00000000000
    -10.56117131241    0.00000000000   -0.00205593177   -2.00000000000
      0.00000000000   10.56117131241   -0.00205593177   -2.00000000000
     10.56117131241    0.00000000000   -0.00205593177   -2.00000000000
      0.00000000000  -10.56117131241   -0.00205593177   -2.00000000000
     -8.44098705582    0.00000000000   -6.38587007189   -2.00000000000
      0.00000000000    8.44098705582   -6.38587007189   -2.00000000000
      8.44098705582    0.00000000000   -6.38587007189   -2.00000000000
      0.00000000000   -8.44098705582   -6.38587007189   -2.00000000000
    -10.55242967836    2.11144262254   -0.05140086690    2.00000000000
     -2.11144262254   10.55242967836   -0.05140086690    2.00000000000
      2.11144262254   10.55242967836   -0.05140086690    2.00000000000
     10.55242967836    2.11144262254   -0.05140086690    2.00000000000
     10.55242967836   -2.11144262254   -0.05140086690    2.00000000000
      2.11144262254  -10.55242967836   -0.05140086690    2.00000000000
     -2.11144262254  -10.55242967836   -0.05140086690    2.00000000000
    -10.55242967836   -2.11144262254   -0.05140086690    2.00000000000
    -10.54803992736    0.00000000000   -2.14928009216    2.00000000000
      0.00000000000   10.54803992736   -2.14928009216    2.00000000000
     10.54803992736    0.00000000000   -2.14928009216    2.00000000000
      0.00000000000  -10.54803992736   -2.14928009216    2.00000000000
     -8.44098705582    6.33393418427   -2.14928009216    2.00000000000
     -6.33393418427    8.44098705582   -2.14928009216    2.00000000000
      6.33393418427    8.44098705582   -2.14928009216    2.00000000000
      8.44098705582    6.33393418427   -2.14928009216    2.00000000000
      8.44098705582   -6.33393418427   -2.14928009216    2.00000000000
      6.33393418427   -8.44098705582   -2.14928009216    2.00000000000
     -6.33393418427   -8.44098705582   -2.14928009216    2.00000000000
     -8.44098705582   -6.33393418427   -2.14928009216    2.00000000000
     -8.44098705582    2.11024676395   -6.38587007189    2.00000000000
     -2.11024676395    8.44098705582   -6.38587007189    2.00000000000
      2.11024676395    8.44098705582   -6.38587007189    2.00000000000
      8.44098705582    2.11024676395   -6.38587007189    2.00000000000
      8.44098705582   -2.11024676395   -6.38587007189    2.00000000000
      2.11024676395   -8.44098705582   -6.38587007189    2.00000000000
     -2.11024676395   -8.44098705582   -6.38587007189    2.00000000000
     -8.44098705582   -2.11024676395   -6.38587007189    2.00000000000
    -10.55169157031    2.11070451449   -2.15696791928   -2.00000000000
     -2.11070451449   10.55169157031   -2.15696791928   -2.00000000000
      2.11070451449   10.55169157031   -2.15696791928   -2.00000000000
     10.55169157031    2.11070451449   -2.15696791928   -2.00000000000
     10.55169157031   -2.11070451449   -2.15696791928   -2.00000000000
      2.11070451449  -10.55169157031   -2.15696791928   -2.00000000000
     -2.11070451449  -10.55169157031   -2.15696791928   -2.00000000000
    -10.55169157031   -2.11070451449   -2.15696791928   -2.00000000000
     -6.33074029186    6.33074029186   -6.38587007189   -2.00000000000
      6.33074029186    6.33074029186   -6.38587007189   -2.00000000000
      6.33074029186   -6.33074029186   -6.38587007189   -2.00000000000
     -6.33074029186   -6.33074029186   -6.38587007189   -2.00000000000
    -10.55307845305    4.22049352791    0.00000000000   -2.00000000000
     -4.22049352791   10.55307845305    0.00000000000   -2.00000000000
      4.22049352791   10.55307845305    0.00000000000   -2.00000000000
     10.55307845305    4.22049352791    0.00000000000   -2.00000000000
     10.55307845305   -4.22049352791    0.00000000000   -2.00000000000
      4.22049352791  -10.55307845305    0.00000000000   -2.00000000000
     -4.22049352791  -10.55307845305    0.00000000000   -2.00000000000
    -10.55307845305   -4.22049352791    0.00000000000   -2.00000000000
    -10.55123381977    0.00000000000   -4.27562330794   -2.00000000000
     -8.44098705582    6.33074029186   -4.27562330794   -2.00000000000
     -6.33074029186    8.44098705582   -4.27562330794   -2.00000000000
      0.00000000000   10.55123381977   -4.27562330794   -2.00000000000
      6.33074029186    8.44098705582   -4.27562330794   -2.00000000000
      8.44098705582    6.33074029186   -4.27562330794   -2.00000000000
     10.55123381977    0.00000000000   -4.27562330794   -2.00000000000
      8.44098705582   -6.33074029186   -4.27562330794   -2.00000000000
      6.33074029186   -8.44098705582   -4.27562330794   -2.00000000000
      0.00000000000  -10.55123381977   -4.27562330794   -2.00000000000
     -6.33074029186   -8.44098705582   -4.27562330794   -2.00000000000
     -8.44098705582   -6.33074029186   -4.27562330794   -2.00000000000
     -8.44098705582    4.22049352791   -6.38587007189   -2.00000000000
     -4.22049352791    8.44098705582   -6.38587007189   -2.00000000000
      4.22049352791    8.44098705582   -6.38587007189   -2.00000000000
      8.44098705582    4.22049352791   -6.38587007189   -2.00000000000
      8.44098705582   -4.22049352791   -6.38587007189   -2.00000000000
      4.22049352791   -8.44098705582   -6.38587007189   -2.00000000000
     -4.22049352791   -8.44098705582   -6.38587007189   -2.00000000000
     -8.44098705582   -4.22049352791   -6.38587007189   -2.00000000000
    -10.55072118099    4.22049352791   -2.15218714568    2.00000000000
     -4.22049352791   10.55072118099   -2.15218714568    2.00000000000
      4.22049352791   10.55072118099   -2.15218714568    2.00000000000
     10.55072118099    4.22049352791   -2.15218714568    2.00000000000
     10.55072118099   -4.22049352791   -2.15218714568    2.00000000000
      4.22049352791  -10.55072118099   -2.15218714568    2.00000000000
     -4.22049352791  -10.55072118099   -2.15218714568    2.00000000000
    -10.55072118099   -4.22049352791   -2.15218714568    2.00000000000
    -10.55123381977    2.11024676395   -4.27562330794    2.00000000000
     -2.11024676395   10.55123381977   -4.27562330794    2.00000000000
      2.11024676395   10.55123381977   -4.27562330794    2.00000000000
     10.55123381977    2.11024676395   -4.27562330794    2.00000000000
     10.55123381977   -2.11024676395   -4.27562330794    2.00000000000
      2.11024676395  -10.55123381977   -4.27562330794    2.00000000000
     -2.11024676395  -10.55123381977   -4.27562330794    2.00000000000
    -10.55123381977   -2.11024676395   -4.27562330794    2.00000000000
     -8.44098705582    8.44098705582   -0.00772802266    2.00000000000
      8.44098705582    8.44098705582   -0.00772802266    2.00000000000
      8.44098705582   -8.44098705582   -0.00772802266    2.00000000000
     -8.44098705582   -8.44098705582   -0.00772802266    2.00000000000
     -8.44098705582    8.44098705582   -2.14902768389   -2.00000000000
      8.44098705582    8.44098705582   -2.14902768389   -2.00000000000
      8.44098705582   -8.44098705582   -2.14902768389   -2.00000000000
     -8.44098705582   -8.44098705582   -2.14902768389   -2.00000000000
    -10.55123381977    4.22049352791   -4.27562330794   -2.00000000000
     -4.22049352791   10.55123381977   -4.27562330794   -2.00000000000
      4.22049352791   10.55123381977   -4.27562330794   -2.00000000000
     10.55123381977    4.22049352791   -4.27562330794   -2.00000000000
     10.55123381977   -4.22049352791   -4.27562330794   -2.00000000000
      4.22049352791  -10.55123381977   -4.27562330794   -2.00000000000
     -4.22049352791  -10.55123381977   -4.27562330794   -2.00000000000
    -10.55123381977   -4.22049352791   -4.27562330794   -2.00000000000
    -10.55242967836    6.32954443328   -0.05140086690    2.00000000000
     -6.32954443328   10.55242967836   -0.05140086690    2.00000000000
      6.32954443328   10.55242967836   -0.05140086690    2.00000000000
     10.55242967836    6.32954443328   -0.05140086690    2.00000000000
     10.55242967836   -6.32954443328   -0.05140086690    2.00000000000
      6.32954443328  -10.55242967836   -0.05140086690    2.00000000000
     -6.32954443328  -10.55242967836   -0.05140086690    2.00000000000
    -10.55242967836   -6.32954443328   -0.05140086690    2.00000000000
    -10.55123381977    0.00000000000   -6.38587007189    2.00000000000
     -8.44098705582    6.33074029186   -6.38587007189    2.00000000000
     -6.33074029186    8.44098705582   -6.38587007189    2.00000000000
      0.00000000000   10.55123381977   -6.38587007189    2.00000000000
      6.33074029186    8.44098705582   -6.38587007189    2.00000000000
      8.44098705582    6.33074029186   -6.38587007189    2.00000000000
     10.55123381977    0.00000000000   -6.38587007189    2.00000000000
      8.44098705582   -6.33074029186   -6.38587007189    2.00000000000
      6.33074029186   -8.44098705582   -6.38587007189    2.00000000000
      0.00000000000  -10.55123381977   -6.38587007189    2.00000000000
     -6.33074029186   -8.44098705582   -6.38587007189    2.00000000000
     -8.44098705582   -6.33074029186   -6.38587007189    2.00000000000
    -10.55169157031    6.33028254133   -2.15696791928   -2.00000000000
     -6.33028254133   10.55169157031   -2.15696791928   -2.00000000000
      6.33028254133   10.55169157031   -2.15696791928   -2.00000000000
     10.55169157031    6.33028254133   -2.15696791928   -2.00000000000
     10.55169157031   -6.33028254133   -2.15696791928   -2.00000000000
      6.33028254133  -10.55169157031   -2.15696791928   -2.00000000000
     -6.33028254133  -10.55169157031   -2.15696791928   -2.00000000000
    -10.55169157031   -6.33028254133   -2.15696791928   -2.00000000000
    -10.55123381977    2.11024676395   -6.38587007189   -2.00000000000
     -2.11024676395   10.55123381977   -6.38587007189   -2.00000000000
      2.11024676395   10.55123381977   -6.38587007189   -2.00000000000
     10.55123381977    2.11024676395   -6.38587007189   -2.00000000000
     10.55123381977   -2.11024676395   -6.38587007189   -2.00000000000
      2.11024676395  -10.55123381977   -6.38587007189   -2.00000000000
     -2.11024676395  -10.55123381977   -6.38587007189   -2.00000000000
    -10.55123381977   -2.11024676395   -6.38587007189   -2.00000000000
    -12.66148058373    0.00000000000   -0.05042534122    2.00000000000
      0.00000000000   12.66148058373   -0.05042534122    2.00000000000
     12.66148058373    0.00000000000   -0.05042534122    2.00000000000
      0.00000000000  -12.66148058373   -0.05042534122    2.00000000000
     -8.44098705582    8.44098705582   -4.27562330794    2.00000000000
      8.44098705582    8.44098705582   -4.27562330794    2.00000000000
      8.44098705582   -8.44098705582   -4.27562330794    2.00000000000
     -8.44098705582   -8.44098705582   -4.27562330794    2.00000000000
    -12.66148058373    2.11209139723    0.00000000000   -2.00000000000
     -2.11209139723   12.66148058373    0.00000000000   -2.00000000000
      2.11209139723   12.66148058373    0.00000000000   -2.00000000000
     12.66148058373    2.11209139723    0.00000000000   -2.00000000000
     12.66148058373   -2.11209139723    0.00000000000   -2.00000000000
      2.11209139723  -12.66148058373    0.00000000000   -2.00000000000
     -2.11209139723  -12.66148058373    0.00000000000   -2.00000000000
    -12.66148058373   -2.11209139723    0.00000000000   -2.00000000000
    -12.66148058373    0.00000000000   -2.15902521756   -2.00000000000
      0.00000000000   12.66148058373   -2.15902521756   -2.00000000000
     12.66148058373    0.00000000000   -2.15902521756   -2.00000000000
      0.00000000000  -12.66148058373   -2.15902521756   -2.00000000000
    -12.66148058373    2.10973412517   -2.15218714568    2.00000000000
     -2.10973412517   12.66148058373   -2.15218714568    2.00000000000
      2.10973412517   12.66148058373   -2.15218714568    2.00000000000
     12.66148058373    2.10973412517   -2.15218714568    2.00000000000
     12.66148058373   -2.10973412517   -2.15218714568    2.00000000000
      2.10973412517  -12.66148058373   -2.15218714568    2.00000000000
     -2.10973412517  -12.66148058373   -2.15218714568    2.00000000000
    -12.66148058373   -2.10973412517   -2.15218714568    2.00000000000
    -10.55123381977    6.33074029186   -4.27562330794    2.00000000000
     -6.33074029186   10.55123381977   -4.27562330794    2.00000000000
      6.33074029186   10.55123381977   -4.27562330794    2.00000000000
     10.55123381977    6.33074029186   -4.27562330794    2.00000000000
     10.55123381977   -6.33074029186   -4.27562330794    2.00000000000
      6.33074029186  -10.55123381977   -4.27562330794    2.00000000000
     -6.33074029186  -10.55123381977   -4.27562330794    2.00000000000
    -10.55123381977   -6.33074029186   -4.27562330794    2.00000000000
    -10.55123381977    4.22049352791   -6.38587007189    2.00000000000
     -4.22049352791   10.55123381977   -6.38587007189    2.00000000000
      4.22049352791   10.55123381977   -6.38587007189    2.00000000000
     10.55123381977    4.22049352791   -6.38587007189    2.00000000000
     10.55123381977   -4.22049352791   -6.38587007189    2.00000000000
      4.22049352791  -10.55123381977   -6.38587007189    2.00000000000
     -4.22049352791  -10.55123381977   -6.38587007189    2.00000000000
    -10.55123381977   -4.22049352791   -6.38587007189    2.00000000000
    -12.66148058373    4.22049352791   -0.04765173215    2.00000000000
     -4.22049352791   12.66148058373   -0.04765173215    2.00000000000
      4.22049352791   12.66148058373   -0.04765173215    2.00000000000
     12.66148058373    4.22049352791   -0.04765173215    2.00000000000
     12.66148058373   -4.22049352791   -0.04765173215    2.00000000000
      4.22049352791  -12.66148058373   -0.04765173215    2.00000000000
     -4.22049352791  -12.66148058373   -0.04765173215    2.00000000000
    -12.66148058373   -4.22049352791   -0.04765173215    2.00000000000
    -12.66148058373    0.00000000000   -4.27562330794    2.00000000000
      0.00000000000   12.66148058373   -4.27562330794    2.00000000000
     12.66148058373    0.00000000000   -4.27562330794    2.00000000000
      0.00000000000  -12.66148058373   -4.27562330794    2.00000000000
    -12.66148058373    4.22049352791   -2.15801787533   -2.00000000000
     -4.22049352791   12.66148058373   -2.15801787533   -2.00000000000
      4.22049352791   12.66148058373   -2.15801787533   -2.00000000000
     12.66148058373    4.22049352791   -2.15801787533   -2.00000000000
     12.66148058373   -4.22049352791   -2.15801787533   -2.00000000000
      4.22049352791  -12.66148058373   -2.15801787533   -2.00000000000
     -4.22049352791  -12.66148058373   -2.15801787533   -2.00000000000
    -12.66148058373   -4.22049352791   -2.15801787533   -2.00000000000
    -10.56117131241    8.44098705582   -0.00205593177   -2.00000000000
     -8.44098705582   10.56117131241   -0.00205593177   -2.00000000000
      8.44098705582   10.56117131241   -0.00205593177   -2.00000000000
     10.56117131241    8.44098705582   -0.00205593177   -2.00000000000
     10.56117131241   -8.44098705582   -0.00205593177   -2.00000000000
      8.44098705582  -10.56117131241   -0.00205593177   -2.00000000000
     -8.44098705582  -10.56117131241   -0.00205593177   -2.00000000000
    -10.56117131241   -8.44098705582   -0.00205593177   -2.00000000000
    -12.66148058373    2.11024676395   -4.27562330794   -2.00000000000
     -2.11024676395   12.66148058373   -4.27562330794   -2.00000000000
      2.11024676395   12.66148058373   -4.27562330794   -2.00000000000
     12.66148058373    2.11024676395   -4.27562330794   -2.00000000000
     12.66148058373   -2.11024676395   -4.27562330794   -2.00000000000
      2.11024676395  -12.66148058373   -4.27562330794   -2.00000000000
     -2.11024676395  -12.66148058373   -4.27562330794   -2.00000000000
    -12.66148058373   -2.11024676395   -4.27562330794   -2.00000000000
     -8.44098705582    8.44098705582   -6.38587007189   -2.00000000000
      8.44098705582    8.44098705582   -6.38587007189   -2.00000000000
      8.44098705582   -8.44098705582   -6.38587007189   -2.00000000000
     -8.44098705582   -8.44098705582   -6.38587007189   -2.00000000000
    -10.54803992736    8.44098705582   -2.14928009216    2.00000000000
     -8.44098705582   10.54803992736   -2.14928009216    2.00000000000
      8.44098705582   10.54803992736   -2.14928009216    2.00000000000
     10.54803992736    8.44098705582   -2.14928009216    2.00000000000
     10.54803992736   -8.44098705582   -2.14928009216    2.00000000000
      8.44098705582  -10.54803992736   -2.14928009216    2.00000000000
     -8.44098705582  -10.54803992736   -2.14928009216    2.00000000000
    -10.54803992736   -8.44098705582   -2.14928009216    2.00000000000
    -10.55123381977    6.33074029186   -6.38587007189   -2.00000000000
     -6.33074029186   10.55123381977   -6.38587007189   -2.00000000000
      6.33074029186   10.55123381977   -6.38587007189   -2.00000000000
     10.55123381977    6.33074029186   -6.38587007189   -2.00000000000
     10.55123381977   -6.33074029186   -6.38587007189   -2.00000000000
      6.33074029186  -10.55123381977   -6.38587007189   -2.00000000000
     -6.33074029186  -10.55123381977   -6.38587007189   -2.00000000000
    -10.55123381977   -6.33074029186   -6.38587007189   -2.00000000000
    -12.66148058373    4.22049352791   -4.27562330794    2.00000000000
     -4.22049352791   12.66148058373   -4.27562330794    2.00000000000
      4.22049352791   12.66148058373   -4.27562330794    2.00000000000
     12.66148058373    4.22049352791   -4.27562330794    2.00000000000
     12.66148058373   -4.22049352791   -4.27562330794    2.00000000000
      4.22049352791  -12.66148058373   -4.27562330794    2.00000000000
     -4.22049352791  -12.66148058373   -4.27562330794    2.00000000000
    -12.66148058373   -4.22049352791   -4.27562330794    2.00000000000
    -12.66148058373    6.32889565859    0.00000000000   -2.00000000000
     -6.32889565859   12.66148058373    0.00000000000   -2.00000000000
      6.32889565859   12.66148058373    0.00000000000   -2.00000000000
     12.66148058373    6.32889565859    0.00000000000   -2.00000000000
     12.66148058373   -6.32889565859    0.00000000000   -2.00000000000
      6.32889565859  -12.66148058373    0.00000000000   -2.00000000000
     -6.32889565859  -12.66148058373    0.00000000000   -2.00000000000
    -12.66148058373   -6.32889565859    0.00000000000   -2.00000000000
    -10.55123381977    8.44098705582   -4.27562330794   -2.00000000000
     -8.44098705582   10.55123381977   -4.27562330794   -2.00000000000
      8.44098705582   10.55123381977   -4.27562330794   -2.00000000000
     10.55123381977    8.44098705582   -4.27562330794   -2.00000000000
     10.55123381977   -8.44098705582   -4.27562330794   -2.00000000000
      8.44098705582  -10.55123381977   -4.27562330794   -2.00000000000
     -8.44098705582  -10.55123381977   -4.27562330794   -2.00000000000
    -10.55123381977   -8.44098705582   -4.27562330794   -2.00000000000
    -12.66148058373    0.00000000000   -6.38587007189   -2.00000000000
      0.00000000000   12.66148058373   -6.38587007189   -2.00000000000
     12.66148058373    0.00000000000   -6.38587007189   -2.00000000000
      0.00000000000  -12.66148058373   -6.38587007189   -2.00000000000
    -12.66148058373    6.33125293065   -2.15218714568    2.00000000000
     -6.33125293065   12.66148058373   -2.15218714568    2.00000000000
      6.33125293065   12.66148058373   -2.15218714568    2.00000000000
     12.66148058373    6.33125293065   -2.15218714568    2.00000000000
     12.66148058373   -6.33125293065   -2.15218714568    2.00000000000
      6.33125293065  -12.66148058373   -2.15218714568    2.00000000000
     -6.33125293065  -12.66148058373   -2.15218714568    2.00000000000
    -12.66148058373   -6.33125293065   -2.15218714568    2.00000000000
    -12.66148058373    2.11024676395   -6.38587007189    2.00000000000
     -2.11024676395   12.66148058373   -6.38587007189    2.00000000000
      2.11024676395   12.66148058373   -6.38587007189    2.00000000000
     12.66148058373    2.11024676395   -6.38587007189    2.00000000000
     12.66148058373   -2.11024676395   -6.38587007189    2.00000000000
      2.11024676395  -12.66148058373   -6.38587007189    2.00000000000
     -2.11024676395  -12.66148058373   -6.38587007189    2.00000000000
    -12.66148058373   -2.11024676395   -6.38587007189    2.00000000000
    -14.76178985505    0.00000000000   -0.00205593177   -2.00000000000
      0.00000000000   14.76178985505   -0.00205593177   -2.00000000000
     14.76178985505    0.00000000000   -0.00205593177   -2.00000000000
      0.00000000000  -14.76178985505   -0.00205593177   -2.00000000000
    -12.66148058373    6.33074029186   -4.27562330794   -2.00000000000
     -6.33074029186   12.66148058373   -4.27562330794   -2.00000000000
      6.33074029186   12.66148058373   -4.27562330794   -2.00000000000
     12.66148058373    6.33074029186   -4.27562330794   -2.00000000000
     12.66148058373   -6.33074029186   -4.27562330794   -2.00000000000
      6.33074029186  -12.66148058373   -4.27562330794   -2.00000000000
     -6.33074029186  -12.66148058373   -4.27562330794   -2.00000000000
    -12.66148058373   -6.33074029186   -4.27562330794   -2.00000000000
    -12.66148058373    4.22049352791   -6.38587007189   -2.00000000000
     -4.22049352791   12.66148058373   -6.38587007189   -2.00000000000
      4.22049352791   12.66148058373   -6.38587007189   -2.00000000000
     12.66148058373    4.22049352791   -6.38587007189   -2.00000000000
     12.66148058373   -4.22049352791   -6.38587007189   -2.00000000000
      4.22049352791  -12.66148058373   -6.38587007189   -2.00000000000
     -4.22049352791  -12.66148058373   -6.38587007189   -2.00000000000
    -12.66148058373   -4.22049352791   -6.38587007189   -2.00000000000
    -14.77053148910    2.11144262254   -0.05140086690    2.00000000000
     -2.11144262254   14.77053148910   -0.05140086690    2.00000000000
      2.11144262254   14.77053148910   -0.05140086690    2.00000000000
     14.77053148910    2.11144262254   -0.05140086690    2.00000000000
     14.77053148910   -2.11144262254   -0.05140086690    2.00000000000
      2.11144262254  -14.77053148910   -0.05140086690    2.00000000000
     -2.11144262254  -14.77053148910   -0.05140086690    2.00000000000
    -14.77053148910   -2.11144262254   -0.05140086690    2.00000000000
    -10.55242967836   10.55242967836   -0.05140086690    2.00000000000
     10.55242967836   10.55242967836   -0.05140086690    2.00000000000
     10.55242967836  -10.55242967836   -0.05140086690    2.00000000000
    -10.55242967836  -10.55242967836   -0.05140086690    2.00000000000
    -14.77492124009    0.00000000000   -2.14928009216    2.00000000000
      0.00000000000   14.77492124009   -2.14928009216    2.00000000000
     14.77492124009    0.00000000000   -2.14928009216    2.00000000000
      0.00000000000  -14.77492124009   -2.14928009216    2.00000000000
    -10.55123381977    8.44098705582   -6.38587007189    2.00000000000
     -8.44098705582   10.55123381977   -6.38587007189    2.00000000000
      8.44098705582   10.55123381977   -6.38587007189    2.00000000000
     10.55123381977    8.44098705582   -6.38587007189    2.00000000000
     10.55123381977   -8.44098705582   -6.38587007189    2.00000000000
      8.44098705582  -10.55123381977   -6.38587007189    2.00000000000
     -8.44098705582  -10.55123381977   -6.38587007189    2.00000000000
    -10.55123381977   -8.44098705582   -6.38587007189    2.00000000000
    -14.77126959714    2.11070451449   -2.15696791928   -2.00000000000
     -2.11070451449   14.77126959714   -2.15696791928   -2.00000000000
      2.11070451449   14.77126959714   -2.15696791928   -2.00000000000
     14.77126959714    2.11070451449   -2.15696791928   -2.00000000000
     14.77126959714   -2.11070451449   -2.15696791928   -2.00000000000
      2.11070451449  -14.77126959714   -2.15696791928   -2.00000000000
     -2.11070451449  -14.77126959714   -2.15696791928   -2.00000000000
    -14.77126959714   -2.11070451449   -2.15696791928   -2.00000000000
    -10.55169157031   10.55169157031   -2.15696791928   -2.00000000000
     10.55169157031   10.55169157031   -2.15696791928   -2.00000000000
     10.55169157031  -10.55169157031   -2.15696791928   -2.00000000000
    -10.55169157031  -10.55169157031   -2.15696791928   -2.00000000000
    -12.66148058373    8.44098705582   -0.05042534122    2.00000000000
     -8.44098705582   12.66148058373   -0.05042534122    2.00000000000
      8.44098705582   12.66148058373   -0.05042534122    2.00000000000
     12.66148058373    8.44098705582   -0.05042534122    2.00000000000
     12.66148058373   -8.44098705582   -0.05042534122    2.00000000000
      8.44098705582  -12.66148058373   -0.05042534122    2.00000000000
     -8.44098705582  -12.66148058373   -0.05042534122    2.00000000000
    -12.66148058373   -8.44098705582   -0.05042534122    2.00000000000
    -14.76988271440    4.22049352791    0.00000000000   -2.00000000000
     -4.22049352791   14.76988271440    0.00000000000   -2.00000000000
      4.22049352791   14.76988271440    0.00000000000   -2.00000000000
     14.76988271440    4.22049352791    0.00000000000   -2.00000000000
     14.76988271440   -4.22049352791    0.00000000000   -2.00000000000
      4.22049352791  -14.76988271440    0.00000000000   -2.00000000000
     -4.22049352791  -14.76988271440    0.00000000000   -2.00000000000
    -14.76988271440   -4.22049352791    0.00000000000   -2.00000000000
    -12.66148058373    8.44098705582   -2.15902521756   -2.00000000000
     -8.44098705582   12.66148058373   -2.15902521756   -2.00000000000
      8.44098705582   12.66148058373   -2.15902521756   -2.00000000000
     12.66148058373    8.44098705582   -2.15902521756   -2.00000000000
     12.66148058373   -8.44098705582   -2.15902521756   -2.00000000000
      8.44098705582  -12.66148058373   -2.15902521756   -2.00000000000
     -8.44098705582  -12.66148058373   -2.15902521756   -2.00000000000
    -12.66148058373   -8.44098705582   -2.15902521756   -2.00000000000
    -14.77172734768    0.00000000000   -4.27562330794   -2.00000000000
      0.00000000000   14.77172734768   -4.27562330794   -2.00000000000
     14.77172734768    0.00000000000   -4.27562330794   -2.00000000000
      0.00000000000  -14.77172734768   -4.27562330794   -2.00000000000
    -14.77223998647    4.22049352791   -2.15218714568    2.00000000000
     -4.22049352791   14.77223998647   -2.15218714568    2.00000000000
      4.22049352791   14.77223998647   -2.15218714568    2.00000000000
     14.77223998647    4.22049352791   -2.15218714568    2.00000000000
     14.77223998647   -4.22049352791   -2.15218714568    2.00000000000
      4.22049352791  -14.77223998647   -2.15218714568    2.00000000000
     -4.22049352791  -14.77223998647   -2.15218714568    2.00000000000
    -14.77223998647   -4.22049352791   -2.15218714568    2.00000000000
    -14.77172734768    2.11024676395   -4.27562330794    2.00000000000
    -10.55123381977   10.55123381977   -4.27562330794    2.00000000000
     -2.11024676395   14.77172734768   -4.27562330794    2.00000000000
      2.11024676395   14.77172734768   -4.27562330794    2.00000000000
     10.55123381977   10.55123381977   -4.27562330794    2.00000000000
     14.77172734768    2.11024676395   -4.27562330794    2.00000000000
     14.77172734768   -2.11024676395   -4.27562330794    2.00000000000
     10.55123381977  -10.55123381977   -4.27562330794    2.00000000000
      2.11024676395  -14.77172734768   -4.27562330794    2.00000000000
     -2.11024676395  -14.77172734768   -4.27562330794    2.00000000000
    -10.55123381977  -10.55123381977   -4.27562330794    2.00000000000
    -14.77172734768   -2.11024676395   -4.27562330794    2.00000000000
    -12.66148058373    6.33074029186   -6.38587007189    2.00000000000
     -6.33074029186   12.66148058373   -6.38587007189    2.00000000000
      6.33074029186   12.66148058373   -6.38587007189    2.00000000000
     12.66148058373    6.33074029186   -6.38587007189    2.00000000000
     12.66148058373   -6.33074029186   -6.38587007189    2.00000000000
      6.33074029186  -12.66148058373   -6.38587007189    2.00000000000
     -6.33074029186  -12.66148058373   -6.38587007189    2.00000000000
    -12.66148058373   -6.33074029186   -6.38587007189    2.00000000000
    -12.66148058373    8.44098705582   -4.27562330794    2.00000000000
     -8.44098705582   12.66148058373   -4.27562330794    2.00000000000
      8.44098705582   12.66148058373   -4.27562330794    2.00000000000
     12.66148058373    8.44098705582   -4.27562330794    2.00000000000
     12.66148058373   -8.44098705582   -4.27562330794    2.00000000000
      8.44098705582  -12.66148058373   -4.27562330794    2.00000000000
     -8.44098705582  -12.66148058373   -4.27562330794    2.00000000000
    -12.66148058373   -8.44098705582   -4.27562330794    2.00000000000
    -14.77172734768    4.22049352791   -4.27562330794   -2.00000000000
     -4.22049352791   14.77172734768   -4.27562330794   -2.00000000000
      4.22049352791   14.77172734768   -4.27562330794   -2.00000000000
     14.77172734768    4.22049352791   -4.27562330794   -2.00000000000
     14.77172734768   -4.22049352791   -4.27562330794   -2.00000000000
      4.22049352791  -14.77172734768   -4.27562330794   -2.00000000000
     -4.22049352791  -14.77172734768   -4.27562330794   -2.00000000000
    -14.77172734768   -4.22049352791   -4.27562330794   -2.00000000000
    -14.77053148910    6.32954443328   -0.05140086690    2.00000000000
     -6.32954443328   14.77053148910   -0.05140086690    2.00000000000
      6.32954443328   14.77053148910   -0.05140086690    2.00000000000
     14.77053148910    6.32954443328   -0.05140086690    2.00000000000
     14.77053148910   -6.32954443328   -0.05140086690    2.00000000000
      6.32954443328  -14.77053148910   -0.05140086690    2.00000000000
     -6.32954443328  -14.77053148910   -0.05140086690    2.00000000000
    -14.77053148910   -6.32954443328   -0.05140086690    2.00000000000
    -14.77172734768    0.00000000000   -6.38587007189    2.00000000000
      0.00000000000   14.77172734768   -6.38587007189    2.00000000000
     14.77172734768    0.00000000000   -6.38587007189    2.00000000000
      0.00000000000  -14.77172734768   -6.38587007189    2.00000000000
    -14.77126959714    6.33028254133   -2.15696791928   -2.00000000000
     -6.33028254133   14.77126959714   -2.15696791928   -2.00000000000
      6.33028254133   14.77126959714   -2.15696791928   -2.00000000000
     14.77126959714    6.33028254133   -2.15696791928   -2.00000000000
     14.77126959714   -6.33028254133   -2.15696791928   -2.00000000000
      6.33028254133  -14.77126959714   -2.15696791928   -2.00000000000
     -6.33028254133  -14.77126959714   -2.15696791928   -2.00000000000
    -14.77126959714   -6.33028254133   -2.15696791928   -2.00000000000
    -14.77172734768    2.11024676395   -6.38587007189   -2.00000000000
    -10.55123381977   10.55123381977   -6.38587007189   -2.00000000000
     -2.11024676395   14.77172734768   -6.38587007189   -2.00000000000
      2.11024676395   14.77172734768   -6.38587007189   -2.00000000000
     10.55123381977   10.55123381977   -6.38587007189   -2.00000000000
     14.77172734768    2.11024676395   -6.38587007189   -2.00000000000
     14.77172734768   -2.11024676395   -6.38587007189   -2.00000000000
     10.55123381977  -10.55123381977   -6.38587007189   -2.00000000000
      2.11024676395  -14.77172734768   -6.38587007189   -2.00000000000
     -2.11024676395  -14.77172734768   -6.38587007189   -2.00000000000
    -10.55123381977  -10.55123381977   -6.38587007189   -2.00000000000
    -14.77172734768   -2.11024676395   -6.38587007189   -2.00000000000
    -12.66148058373   10.55307845305    0.00000000000   -2.00000000000
    -10.55307845305   12.66148058373    0.00000000000   -2.00000000000
     10.55307845305   12.66148058373    0.00000000000   -2.00000000000
     12.66148058373   10.55307845305    0.00000000000   -2.00000000000
     12.66148058373  -10.55307845305    0.00000000000   -2.00000000000
     10.55307845305  -12.66148058373    0.00000000000   -2.00000000000
    -10.55307845305  -12.66148058373    0.00000000000   -2.00000000000
    -12.66148058373  -10.55307845305    0.00000000000   -2.00000000000
    -12.66148058373    8.44098705582   -6.38587007189   -2.00000000000
     -8.44098705582   12.66148058373   -6.38587007189   -2.00000000000
      8.44098705582   12.66148058373   -6.38587007189   -2.00000000000
     12.66148058373    8.44098705582   -6.38587007189   -2.00000000000
     12.66148058373   -8.44098705582   -6.38587007189   -2.00000000000
      8.44098705582  -12.66148058373   -6.38587007189   -2.00000000000
     -8.44098705582  -12.66148058373   -6.38587007189   -2.00000000000
    -12.66148058373   -8.44098705582   -6.38587007189   -2.00000000000
    -12.66148058373   10.55072118099   -2.15218714568    2.00000000000
    -10.55072118099   12.66148058373   -2.15218714568    2.00000000000
     10.55072118099   12.66148058373   -2.15218714568    2.00000000000
     12.66148058373   10.55072118099   -2.15218714568    2.00000000000
     12.66148058373  -10.55072118099   -2.15218714568    2.00000000000
     10.55072118099  -12.66148058373   -2.15218714568    2.00000000000
    -10.55072118099  -12.66148058373   -2.15218714568    2.00000000000
    -12.66148058373  -10.55072118099   -2.15218714568    2.00000000000
    -14.77172734768    6.33074029186   -4.27562330794    2.00000000000
     -6.33074029186   14.77172734768   -4.27562330794    2.00000000000
      6.33074029186   14.77172734768   -4.27562330794    2.00000000000
     14.77172734768    6.33074029186   -4.27562330794    2.00000000000
     14.77172734768   -6.33074029186   -4.27562330794    2.00000000000
      6.33074029186  -14.77172734768   -4.27562330794    2.00000000000
     -6.33074029186  -14.77172734768   -4.27562330794    2.00000000000
    -14.77172734768   -6.33074029186   -4.27562330794    2.00000000000
    -14.77172734768    4.22049352791   -6.38587007189    2.00000000000
     -4.22049352791   14.77172734768   -6.38587007189    2.00000000000
      4.22049352791   14.77172734768   -6.38587007189    2.00000000000
     14.77172734768    4.22049352791   -6.38587007189    2.00000000000
     14.77172734768   -4.22049352791   -6.38587007189    2.00000000000
      4.22049352791  -14.77172734768   -6.38587007189    2.00000000000
     -4.22049352791  -14.77172734768   -6.38587007189    2.00000000000
    -14.77172734768   -4.22049352791   -6.38587007189    2.00000000000
    -16.88197411163    0.00000000000   -0.00772802266    2.00000000000
      0.00000000000   16.88197411163   -0.00772802266    2.00000000000
     16.88197411163    0.00000000000   -0.00772802266    2.00000000000
      0.00000000000  -16.88197411163   -0.00772802266    2.00000000000
    -14.76178985505    8.44098705582   -0.00205593177   -2.00000000000
     -8.44098705582   14.76178985505   -0.00205593177   -2.00000000000
      8.44098705582   14.76178985505   -0.00205593177   -2.00000000000
     14.76178985505    8.44098705582   -0.00205593177   -2.00000000000
     14.76178985505   -8.44098705582   -0.00205593177   -2.00000000000
      8.44098705582  -14.76178985505   -0.00205593177   -2.00000000000
     -8.44098705582  -14.76178985505   -0.00205593177   -2.00000000000
    -14.76178985505   -8.44098705582   -0.00205593177   -2.00000000000
    -16.88197411163    2.12018425659   -0.00205593177   -2.00000000000
     -2.12018425659   16.88197411163   -0.00205593177   -2.00000000000
      2.12018425659   16.88197411163   -0.00205593177   -2.00000000000
     16.88197411163    2.12018425659   -0.00205593177   -2.00000000000
     16.88197411163   -2.12018425659   -0.00205593177   -2.00000000000
      2.12018425659  -16.88197411163   -0.00205593177   -2.00000000000
     -2.12018425659  -16.88197411163   -0.00205593177   -2.00000000000
    -16.88197411163   -2.12018425659   -0.00205593177   -2.00000000000
    -16.88197411163    0.00000000000   -2.14902768389   -2.00000000000
      0.00000000000   16.88197411163   -2.14902768389   -2.00000000000
     16.88197411163    0.00000000000   -2.14902768389   -2.00000000000
      0.00000000000  -16.88197411163   -2.14902768389   -2.00000000000
    -12.66148058373   10.55123381977   -4.27562330794   -2.00000000000
    -10.55123381977   12.66148058373   -4.27562330794   -2.00000000000
     10.55123381977   12.66148058373   -4.27562330794   -2.00000000000
     12.66148058373   10.55123381977   -4.27562330794   -2.00000000000
     12.66148058373  -10.55123381977   -4.27562330794   -2.00000000000
     10.55123381977  -12.66148058373   -4.27562330794   -2.00000000000
    -10.55123381977  -12.66148058373   -4.27562330794   -2.00000000000
    -12.66148058373  -10.55123381977   -4.27562330794   -2.00000000000
    -16.88197411163    2.10705287155   -2.14928009216    2.00000000000
     -2.10705287155   16.88197411163   -2.14928009216    2.00000000000
      2.10705287155   16.88197411163   -2.14928009216    2.00000000000
     16.88197411163    2.10705287155   -2.14928009216    2.00000000000
     16.88197411163   -2.10705287155   -2.14928009216    2.00000000000
      2.10705287155  -16.88197411163   -2.14928009216    2.00000000000
     -2.10705287155  -16.88197411163   -2.14928009216    2.00000000000
    -16.88197411163   -2.10705287155   -2.14928009216    2.00000000000
    -14.77492124009    8.44098705582   -2.14928009216    2.00000000000
     -8.44098705582   14.77492124009   -2.14928009216    2.00000000000
      8.44098705582   14.77492124009   -2.14928009216    2.00000000000
     14.77492124009    8.44098705582   -2.14928009216    2.00000000000
     14.77492124009   -8.44098705582   -2.14928009216    2.00000000000
      8.44098705582  -14.77492124009   -2.14928009216    2.00000000000
     -8.44098705582  -14.77492124009   -2.14928009216    2.00000000000
    -14.77492124009   -8.44098705582   -2.14928009216    2.00000000000
    -14.77172734768    6.33074029186   -6.38587007189   -2.00000000000
     -6.33074029186   14.77172734768   -6.38587007189   -2.00000000000
      6.33074029186   14.77172734768   -6.38587007189   -2.00000000000
     14.77172734768    6.33074029186   -6.38587007189   -2.00000000000
     14.77172734768   -6.33074029186   -6.38587007189   -2.00000000000
      6.33074029186  -14.77172734768   -6.38587007189   -2.00000000000
     -6.33074029186  -14.77172734768   -6.38587007189   -2.00000000000
    -14.77172734768   -6.33074029186   -6.38587007189   -2.00000000000
    -16.88197411163    4.22049352791   -0.05042534122    2.00000000000
     -4.22049352791   16.88197411163   -0.05042534122    2.00000000000
      4.22049352791   16.88197411163   -0.05042534122    2.00000000000
     16.88197411163    4.22049352791   -0.05042534122    2.00000000000
     16.88197411163   -4.22049352791   -0.05042534122    2.00000000000
      4.22049352791  -16.88197411163   -0.05042534122    2.00000000000
     -4.22049352791  -16.88197411163   -0.05042534122    2.00000000000
    -16.88197411163   -4.22049352791   -0.05042534122    2.00000000000
    -16.88197411163    0.00000000000   -4.27562330794    2.00000000000
      0.00000000000   16.88197411163   -4.27562330794    2.00000000000
     16.88197411163    0.00000000000   -4.27562330794    2.00000000000
      0.00000000000  -16.88197411163   -4.27562330794    2.00000000000
    -16.88197411163    4.22049352791   -2.15902521756   -2.00000000000
     -4.22049352791   16.88197411163   -2.15902521756   -2.00000000000
      4.22049352791   16.88197411163   -2.15902521756   -2.00000000000
     16.88197411163    4.22049352791   -2.15902521756   -2.00000000000
     16.88197411163   -4.22049352791   -2.15902521756   -2.00000000000
      4.22049352791  -16.88197411163   -2.15902521756   -2.00000000000
     -4.22049352791  -16.88197411163   -2.15902521756   -2.00000000000
    -16.88197411163   -4.22049352791   -2.15902521756   -2.00000000000
    -16.88197411163    2.11024676395   -4.27562330794   -2.00000000000
    -14.77172734768    8.44098705582   -4.27562330794   -2.00000000000
     -8.44098705582   14.77172734768   -4.27562330794   -2.00000000000
     -2.11024676395   16.88197411163   -4.27562330794   -2.00000000000
      2.11024676395   16.88197411163   -4.27562330794   -2.00000000000
      8.44098705582   14.77172734768   -4.27562330794   -2.00000000000
     14.77172734768    8.44098705582   -4.27562330794   -2.00000000000
     16.88197411163    2.11024676395   -4.27562330794   -2.00000000000
     16.88197411163   -2.11024676395   -4.27562330794   -2.00000000000
     14.77172734768   -8.44098705582   -4.27562330794   -2.00000000000
      8.44098705582  -14.77172734768   -4.27562330794   -2.00000000000
      2.11024676395  -16.88197411163   -4.27562330794   -2.00000000000
     -2.11024676395  -16.88197411163   -4.27562330794   -2.00000000000
     -8.44098705582  -14.77172734768   -4.27562330794   -2.00000000000
    -14.77172734768   -8.44098705582   -4.27562330794   -2.00000000000
    -16.88197411163   -2.11024676395   -4.27562330794   -2.00000000000
    -12.66148058373   10.55123381977   -6.38587007189    2.00000000000
    -10.55123381977   12.66148058373   -6.38587007189    2.00000000000
     10.55123381977   12.66148058373   -6.38587007189    2.00000000000
     12.66148058373   10.55123381977   -6.38587007189    2.00000000000
     12.66148058373  -10.55123381977   -6.38587007189    2.00000000000
     10.55123381977  -12.66148058373   -6.38587007189    2.00000000000
    -10.55123381977  -12.66148058373   -6.38587007189    2.00000000000
    -12.66148058373  -10.55123381977   -6.38587007189    2.00000000000
    -12.66148058373   12.66148058373   -0.04765173215    2.00000000000
     12.66148058373   12.66148058373   -0.04765173215    2.00000000000
     12.66148058373  -12.66148058373   -0.04765173215    2.00000000000
    -12.66148058373  -12.66148058373   -0.04765173215    2.00000000000
    -16.88197411163    4.22049352791   -4.27562330794    2.00000000000
     -4.22049352791   16.88197411163   -4.27562330794    2.00000000000
      4.22049352791   16.88197411163   -4.27562330794    2.00000000000
     16.88197411163    4.22049352791   -4.27562330794    2.00000000000
     16.88197411163   -4.22049352791   -4.27562330794    2.00000000000
      4.22049352791  -16.88197411163   -4.27562330794    2.00000000000
     -4.22049352791  -16.88197411163   -4.27562330794    2.00000000000
    -16.88197411163   -4.22049352791   -4.27562330794    2.00000000000
    -16.88197411163    6.32080279923   -0.00205593177   -2.00000000000
     -6.32080279923   16.88197411163   -0.00205593177   -2.00000000000
      6.32080279923   16.88197411163   -0.00205593177   -2.00000000000
     16.88197411163    6.32080279923   -0.00205593177   -2.00000000000
     16.88197411163   -6.32080279923   -0.00205593177   -2.00000000000
      6.32080279923  -16.88197411163   -0.00205593177   -2.00000000000
     -6.32080279923  -16.88197411163   -0.00205593177   -2.00000000000
    -16.88197411163   -6.32080279923   -0.00205593177   -2.00000000000
    -12.66148058373   12.66148058373   -2.15801787533   -2.00000000000
     12.66148058373   12.66148058373   -2.15801787533   -2.00000000000
     12.66148058373  -12.66148058373   -2.15801787533   -2.00000000000
    -12.66148058373  -12.66148058373   -2.15801787533   -2.00000000000
    -16.88197411163    0.00000000000   -6.38587007189   -2.00000000000
      0.00000000000   16.88197411163   -6.38587007189   -2.00000000000
     16.88197411163    0.00000000000   -6.38587007189   -2.00000000000
      0.00000000000  -16.88197411163   -6.38587007189   -2.00000000000
    -14.77053148910   10.55242967836   -0.05140086690    2.00000000000
    -10.55242967836   14.77053148910   -0.05140086690    2.00000000000
     10.55242967836   14.77053148910   -0.05140086690    2.00000000000
     14.77053148910   10.55242967836   -0.05140086690    2.00000000000
     14.77053148910  -10.55242967836   -0.05140086690    2.00000000000
     10.55242967836  -14.77053148910   -0.05140086690    2.00000000000
    -10.55242967836  -14.77053148910   -0.05140086690    2.00000000000
    -14.77053148910  -10.55242967836   -0.05140086690    2.00000000000
    -16.88197411163    6.33393418427   -2.14928009216    2.00000000000
     -6.33393418427   16.88197411163   -2.14928009216    2.00000000000
      6.33393418427   16.88197411163   -2.14928009216    2.00000000000
     16.88197411163    6.33393418427   -2.14928009216    2.00000000000
     16.88197411163   -6.33393418427   -2.14928009216    2.00000000000
      6.33393418427  -16.88197411163   -2.14928009216    2.00000000000
     -6.33393418427  -16.88197411163   -2.14928009216    2.00000000000
    -16.88197411163   -6.33393418427   -2.14928009216    2.00000000000
    -16.88197411163    2.11024676395   -6.38587007189    2.00000000000
    -14.77172734768    8.44098705582   -6.38587007189    2.00000000000
     -8.44098705582   14.77172734768   -6.38587007189    2.00000000000
     -2.11024676395   16.88197411163   -6.38587007189    2.00000000000
      2.11024676395   16.88197411163   -6.38587007189    2.00000000000
      8.44098705582   14.77172734768   -6.38587007189    2.00000000000
     14.77172734768    8.44098705582   -6.38587007189    2.00000000000
     16.88197411163    2.11024676395   -6.38587007189    2.00000000000
     16.88197411163   -2.11024676395   -6.38587007189    2.00000000000
     14.77172734768   -8.44098705582   -6.38587007189    2.00000000000
      8.44098705582  -14.77172734768   -6.38587007189    2.00000000000
      2.11024676395  -16.88197411163   -6.38587007189    2.00000000000
     -2.11024676395  -16.88197411163   -6.38587007189    2.00000000000
     -8.44098705582  -14.77172734768   -6.38587007189    2.00000000000
    -14.77172734768   -8.44098705582   -6.38587007189    2.00000000000
    -16.88197411163   -2.11024676395   -6.38587007189    2.00000000000
    -14.77126959714   10.55169157031   -2.15696791928   -2.00000000000
    -10.55169157031   14.77126959714   -2.15696791928   -2.00000000000
     10.55169157031   14.77126959714   -2.15696791928   -2.00000000000
     14.77126959714   10.55169157031   -2.15696791928   -2.00000000000
     14.77126959714  -10.55169157031   -2.15696791928   -2.00000000000
     10.55169157031  -14.77126959714   -2.15696791928   -2.00000000000
    -10.55169157031  -14.77126959714   -2.15696791928   -2.00000000000
    -14.77126959714  -10.55169157031   -2.15696791928   -2.00000000000
    -12.66148058373   12.66148058373   -4.27562330794    2.00000000000
     12.66148058373   12.66148058373   -4.27562330794    2.00000000000
     12.66148058373  -12.66148058373   -4.27562330794    2.00000000000
    -12.66148058373  -12.66148058373   -4.27562330794    2.00000000000
    -16.88197411163    6.33074029186   -4.27562330794   -2.00000000000
     -6.33074029186   16.88197411163   -4.27562330794   -2.00000000000
      6.33074029186   16.88197411163   -4.27562330794   -2.00000000000
     16.88197411163    6.33074029186   -4.27562330794   -2.00000000000
     16.88197411163   -6.33074029186   -4.27562330794   -2.00000000000
      6.33074029186  -16.88197411163   -4.27562330794   -2.00000000000
     -6.33074029186  -16.88197411163   -4.27562330794   -2.00000000000
    -16.88197411163   -6.33074029186   -4.27562330794   -2.00000000000
    -16.88197411163    4.22049352791   -6.38587007189   -2.00000000000
     -4.22049352791   16.88197411163   -6.38587007189   -2.00000000000
      4.22049352791   16.88197411163   -6.38587007189   -2.00000000000
     16.88197411163    4.22049352791   -6.38587007189   -2.00000000000
     16.88197411163   -4.22049352791   -6.38587007189   -2.00000000000
      4.22049352791  -16.88197411163   -6.38587007189   -2.00000000000
     -4.22049352791  -16.88197411163   -6.38587007189   -2.00000000000
    -16.88197411163   -4.22049352791   -6.38587007189   -2.00000000000
    -14.77172734768   10.55123381977   -4.27562330794    2.00000000000
    -10.55123381977   14.77172734768   -4.27562330794    2.00000000000
     10.55123381977   14.77172734768   -4.27562330794    2.00000000000
     14.77172734768   10.55123381977   -4.27562330794    2.00000000000
     14.77172734768  -10.55123381977   -4.27562330794    2.00000000000
     10.55123381977  -14.77172734768   -4.27562330794    2.00000000000
    -10.55123381977  -14.77172734768   -4.27562330794    2.00000000000
    -14.77172734768  -10.55123381977   -4.27562330794    2.00000000000
    -16.88197411163    8.44098705582   -0.00772802266    2.00000000000
     -8.44098705582   16.88197411163   -0.00772802266    2.00000000000
      8.44098705582   16.88197411163   -0.00772802266    2.00000000000
     16.88197411163    8.44098705582   -0.00772802266    2.00000000000
     16.88197411163   -8.44098705582   -0.00772802266    2.00000000000
      8.44098705582  -16.88197411163   -0.00772802266    2.00000000000
     -8.44098705582  -16.88197411163   -0.00772802266    2.00000000000
    -16.88197411163   -8.44098705582   -0.00772802266    2.00000000000
    -16.88197411163    8.44098705582   -2.14902768389   -2.00000000000
     -8.44098705582   16.88197411163   -2.14902768389   -2.00000000000
      8.44098705582   16.88197411163   -2.14902768389   -2.00000000000
     16.88197411163    8.44098705582   -2.14902768389   -2.00000000000
     16.88197411163   -8.44098705582   -2.14902768389   -2.00000000000
      8.44098705582  -16.88197411163   -2.14902768389   -2.00000000000
     -8.44098705582  -16.88197411163   -2.14902768389   -2.00000000000
    -16.88197411163   -8.44098705582   -2.14902768389   -2.00000000000
    -19.00215836822    0.00000000000   -0.00205593177   -2.00000000000
      0.00000000000   19.00215836822   -0.00205593177   -2.00000000000
     19.00215836822    0.00000000000   -0.00205593177   -2.00000000000
      0.00000000000  -19.00215836822   -0.00205593177   -2.00000000000
    -12.66148058373   12.66148058373   -6.38587007189   -2.00000000000
     12.66148058373   12.66148058373   -6.38587007189   -2.00000000000
     12.66148058373  -12.66148058373   -6.38587007189   -2.00000000000
    -12.66148058373  -12.66148058373   -6.38587007189   -2.00000000000
    -18.98902698318    0.00000000000   -2.14928009216    2.00000000000
      0.00000000000   18.98902698318   -2.14928009216    2.00000000000
     18.98902698318    0.00000000000   -2.14928009216    2.00000000000
      0.00000000000  -18.98902698318   -2.14928009216    2.00000000000
    -18.99341673417    2.11144262254   -0.05140086690    2.00000000000
     -2.11144262254   18.99341673417   -0.05140086690    2.00000000000
      2.11144262254   18.99341673417   -0.05140086690    2.00000000000
     18.99341673417    2.11144262254   -0.05140086690    2.00000000000
     18.99341673417   -2.11144262254   -0.05140086690    2.00000000000
      2.11144262254  -18.99341673417   -0.05140086690    2.00000000000
     -2.11144262254  -18.99341673417   -0.05140086690    2.00000000000
    -18.99341673417   -2.11144262254   -0.05140086690    2.00000000000
    -16.88197411163    6.33074029186   -6.38587007189    2.00000000000
     -6.33074029186   16.88197411163   -6.38587007189    2.00000000000
      6.33074029186   16.88197411163   -6.38587007189    2.00000000000
     16.88197411163    6.33074029186   -6.38587007189    2.00000000000
     16.88197411163   -6.33074029186   -6.38587007189    2.00000000000
      6.33074029186  -16.88197411163   -6.38587007189    2.00000000000
     -6.33074029186  -16.88197411163   -6.38587007189    2.00000000000
    -16.88197411163   -6.33074029186   -6.38587007189    2.00000000000
    -18.99267862613    2.11070451449   -2.15696791928   -2.00000000000
     -2.11070451449   18.99267862613   -2.15696791928   -2.00000000000
      2.11070451449   18.99267862613   -2.15696791928   -2.00000000000
     18.99267862613    2.11070451449   -2.15696791928   -2.00000000000
     18.99267862613   -2.11070451449   -2.15696791928   -2.00000000000
      2.11070451449  -18.99267862613   -2.15696791928   -2.00000000000
     -2.11070451449  -18.99267862613   -2.15696791928   -2.00000000000
    -18.99267862613   -2.11070451449   -2.15696791928   -2.00000000000
    -14.77172734768   10.55123381977   -6.38587007189   -2.00000000000
    -10.55123381977   14.77172734768   -6.38587007189   -2.00000000000
     10.55123381977   14.77172734768   -6.38587007189   -2.00000000000
     14.77172734768   10.55123381977   -6.38587007189   -2.00000000000
     14.77172734768  -10.55123381977   -6.38587007189   -2.00000000000
     10.55123381977  -14.77172734768   -6.38587007189   -2.00000000000
    -10.55123381977  -14.77172734768   -6.38587007189   -2.00000000000
    -14.77172734768  -10.55123381977   -6.38587007189   -2.00000000000
    -16.88197411163    8.44098705582   -4.27562330794    2.00000000000
     -8.44098705582   16.88197411163   -4.27562330794    2.00000000000
      8.44098705582   16.88197411163   -4.27562330794    2.00000000000
     16.88197411163    8.44098705582   -4.27562330794    2.00000000000
     16.88197411163   -8.44098705582   -4.27562330794    2.00000000000
      8.44098705582  -16.88197411163   -4.27562330794    2.00000000000
     -8.44098705582  -16.88197411163   -4.27562330794    2.00000000000
    -16.88197411163   -8.44098705582   -4.27562330794    2.00000000000
    -14.76988271440   12.66148058373    0.00000000000   -2.00000000000
    -12.66148058373   14.76988271440    0.00000000000   -2.00000000000
     12.66148058373   14.76988271440    0.00000000000   -2.00000000000
     14.76988271440   12.66148058373    0.00000000000   -2.00000000000
     14.76988271440  -12.66148058373    0.00000000000   -2.00000000000
     12.66148058373  -14.76988271440    0.00000000000   -2.00000000000
    -12.66148058373  -14.76988271440    0.00000000000   -2.00000000000
    -14.76988271440  -12.66148058373    0.00000000000   -2.00000000000
    -18.99406550886    4.22049352791    0.00000000000   -2.00000000000
     -4.22049352791   18.99406550886    0.00000000000   -2.00000000000
[...]
 
 
 Starting CCSD iterations...
 
                     Residual norm       Correlation Energy
 Iteration  1        0.223970993230       -0.914024289786
 Iteration  2        0.058448242388       -0.934317473141
 Iteration  3        0.019857750786       -0.937706164641
 Iteration  4        0.004118325539       -0.937666476901
 Iteration  5        0.001204549199       -0.937678911901
 Iteration  6        0.000266678606       -0.937689089322
 Iteration  7        0.000084727262       -0.937685947248
 Iteration  8        0.000023979641       -0.937685388407
 
 CCSD iteration has converged in  8 steps.
      746.69 MB memory was utilized by CCSD
 
 T1 diagnostic:      1.110E-02            D1 diagnostic:      3.709E-02
 
 T1 contribution [au]:                         0.000000000000
 CCSD correlation energy [au]:                -0.068954307012
 
 CPU time [min]:  9282.557                   Wall time [min]:   258.410
 
 Calculation of (T) correction...
 
 Laplace threshold, nquadmin:  1.00E-03   4
 Number of quadrature points:    4
 
      646.53 MB memory is utilized for (T)

 0%       25%       50%       75%       100%
 |---------|---------|---------|---------| 
 
 (T) correction [au]:                   -0.002564988535
 CCSD(T) correlation energy [au]:       -0.071519295547
 
 CPU time [min]:  9290.088                   Wall time [min]:   258.601
 
 MO:    90
 Number of atoms in domain:      24
 Number of atomic orbitals:    1169
 Number of atoms for local DF:   24
 Number of fitting functions:  2894 (100.00%)
 Warning: drop high-lying PAOs                     5
 Number of occupied orbitals:    55
 Number of virtual  orbitals:  1047
 Number of Cholesky vectors:      7
 MP2 energy in ED [au]:          -0.069367181954
 Number of occupied LNOs:        29  (52.73%)
 Number of virtual  LNOs:       108  (10.32%)
dropped smallnorm   561   562   5.60462376E-06
 tol*100>norm                   572  1.637734763050247E-005
 tol*100>norm                   573  1.643438140382653E-005
 tol*100>norm                   574  1.653891110551088E-005
 small norm                   571  1.637734763050243E-005
 small norm                   572  1.643438140382666E-005
 small norm                   573  1.653891110551090E-005
 Number of Cholesky vectors:      6
 MP2 energy in LIS [au]:         -0.069189694513
 Correction for frozen LNO [au]: -0.000177487441     (0.256%)
 Number of NAFs:                367  (12.68%)
 CPU time [min]:  9355.273                   Wall time [min]:   260.325
 

 Direct DF-CCSD(T) calculation
 
 Convergence criterion:  1.0E-05
 
 Number of occupied/virtual/auxiliary orbitals:    29   108   367
    355.15 MB is the minimal memory requirement for (T)
    247.97 MB is the minimal memory requirement for CCSD
 
 MP2 correlation energy [au]:       -0.918108241601
 
 LMP2 domain correlation energy contribution [au]:       -0.069189574048
 
 CPU time [min]:  9355.525                   Wall time [min]:   260.338
 
 
 Starting CCSD iterations...
 
                     Residual norm       Correlation Energy
 Iteration  1        0.223989410154       -0.914286291572
 Iteration  2        0.058460041889       -0.934583574465
 Iteration  3        0.019863159895       -0.937974596145
 Iteration  4        0.004118823301       -0.937934806391
 Iteration  5        0.001204746756       -0.937947292651
 Iteration  6        0.000266685487       -0.937957498568
 Iteration  7        0.000084744000       -0.937954352287
 Iteration  8        0.000023981516       -0.937953789657
 
 CCSD iteration has converged in  8 steps.
      746.69 MB memory was utilized by CCSD
 
 T1 diagnostic:      1.110E-02            D1 diagnostic:      3.709E-02
 
 T1 contribution [au]:                         0.000000000000
 CCSD correlation energy [au]:                -0.068954593414
 
 CPU time [min]:  9362.824                   Wall time [min]:   260.573
 
 Calculation of (T) correction...
 
 Laplace threshold, nquadmin:  1.00E-03   4
 Number of quadrature points:    4
 
      646.53 MB memory is utilized for (T)

 0%       25%       50%       75%       100%
 |---------|---------|---------|---------| 
 
 (T) correction [au]:                   -0.002565019544
 CCSD(T) correlation energy [au]:       -0.071519612958
 
 CPU time [min]:  9370.352                   Wall time [min]:   260.763
 
 MO:    91
 Number of atoms in domain:      24
 Number of atomic orbitals:    1169
 Number of atoms for local DF:   24
 Number of fitting functions:  2894 (100.00%)
 Warning: drop high-lying PAOs                     5
 Number of occupied orbitals:    55
 Number of virtual  orbitals:  1047
 Number of Cholesky vectors:      7
 MP2 energy in ED [au]:          -0.069366909347
 Number of occupied LNOs:        29  (52.73%)
 Number of virtual  LNOs:       108  (10.32%)
 tol*100>norm                   107  4.390220786730767E-004
dropped smallnorm   502   503   5.60579694E-06
 tol*100>norm                   513  1.637788053962063E-005
 tol*100>norm                   514  1.653972821348423E-005
 tol*100>norm                   515  1.643671566584330E-005
 small norm                   512  1.637788053962060E-005
 small norm                   513  1.653972821348422E-005
 small norm                   514  1.643671566584335E-005
 Number of Cholesky vectors:      6
 MP2 energy in LIS [au]:         -0.069189553139
 Correction for frozen LNO [au]: -0.000177356208     (0.256%)
 Number of NAFs:                367  (12.68%)
 CPU time [min]:  9435.495                   Wall time [min]:   262.487
 

 Direct DF-CCSD(T) calculation
 
 Convergence criterion:  1.0E-05
 
 Number of occupied/virtual/auxiliary orbitals:    29   108   367
    355.15 MB is the minimal memory requirement for (T)
    247.97 MB is the minimal memory requirement for CCSD
 
 MP2 correlation energy [au]:       -0.917962110490
 
 LMP2 domain correlation energy contribution [au]:       -0.069189433458
 
 CPU time [min]:  9435.746                   Wall time [min]:   262.500
 
 
 Starting CCSD iterations...
 
                     Residual norm       Correlation Energy
 Iteration  1        0.223979563818       -0.914160406421
 Iteration  2        0.058452315600       -0.934455261093
 Iteration  3        0.019859964722       -0.937844764167
 Iteration  4        0.004118573582       -0.937805024440
 Iteration  5        0.001204646377       -0.937817485669
 Iteration  6        0.000266674992       -0.937827676519
 Iteration  7        0.000084734357       -0.937824532089
 Iteration  8        0.000023980933       -0.937823971547
 
 CCSD iteration has converged in  8 steps.
      746.69 MB memory was utilized by CCSD
 
 T1 diagnostic:      1.110E-02            D1 diagnostic:      3.709E-02
 
 T1 contribution [au]:                         0.000000000000
 CCSD correlation energy [au]:                -0.068954481207
 
 CPU time [min]:  9443.045                   Wall time [min]:   262.735
 
 Calculation of (T) correction...
 
 Laplace threshold, nquadmin:  1.00E-03   4
 Number of quadrature points:    4
 
      646.53 MB memory is utilized for (T)

 0%       25%       50%       75%       100%
 |---------|---------|---------|---------| 
 
 (T) correction [au]:                   -0.002565001766
 CCSD(T) correlation energy [au]:       -0.071519482974
 
 CPU time [min]:  9450.571                   Wall time [min]:   262.925
 
 MO:    92
 Number of atoms in domain:      24
 Number of atomic orbitals:    1169
 Number of atoms for local DF:   24
 Number of fitting functions:  2894 (100.00%)
 Warning: drop high-lying PAOs                     5
 Number of occupied orbitals:    55
 Number of virtual  orbitals:  1047
 Number of Cholesky vectors:      7
 MP2 energy in ED [au]:          -0.069367372426
 Number of occupied LNOs:        29  (52.73%)
 Number of virtual  LNOs:       108  (10.32%)
 tol*100>norm                   107  4.390220786730789E-004
dropped smallnorm   502   503   5.60579694E-06
 tol*100>norm                   513  1.637788053962058E-005
 tol*100>norm                   514  1.653972821348416E-005
 tol*100>norm                   515  1.643671566584296E-005
 small norm                   512  1.637788053962064E-005
 small norm                   513  1.653972821348412E-005
 small norm                   514  1.643671566584311E-005
 Number of Cholesky vectors:      6
 MP2 energy in LIS [au]:         -0.069189883263
 Correction for frozen LNO [au]: -0.000177489164     (0.256%)
 Number of NAFs:                367  (12.68%)
 CPU time [min]:  9515.780                   Wall time [min]:   264.650
 

 Direct DF-CCSD(T) calculation
 
 Convergence criterion:  1.0E-05
 
 Number of occupied/virtual/auxiliary orbitals:    29   108   367
    355.15 MB is the minimal memory requirement for (T)
    247.97 MB is the minimal memory requirement for CCSD
 
 MP2 correlation energy [au]:       -0.918262237373
 
 LMP2 domain correlation energy contribution [au]:       -0.069189764391
 
 CPU time [min]:  9516.032                   Wall time [min]:   264.663
 
 
 Starting CCSD iterations...
 
                     Residual norm       Correlation Energy
 Iteration  1        0.223993950174       -0.914425961906
 Iteration  2        0.058459749321       -0.934725667562
 Iteration  3        0.019863902470       -0.938117184638
 Iteration  4        0.004118717840       -0.938077313911
 Iteration  5        0.001204755494       -0.938089822490
 Iteration  6        0.000266667402       -0.938100042756
 Iteration  7        0.000084744938       -0.938096894589
 Iteration  8        0.000023980644       -0.938096330689
 
 CCSD iteration has converged in  8 steps.
      746.69 MB memory was utilized by CCSD
 
 T1 diagnostic:      1.110E-02            D1 diagnostic:      3.709E-02
 
 T1 contribution [au]:                         0.000000000000
 CCSD correlation energy [au]:                -0.068954763372
 
 CPU time [min]:  9523.345                   Wall time [min]:   264.898
 
 Calculation of (T) correction...
 
 Laplace threshold, nquadmin:  1.00E-03   4
 Number of quadrature points:    4
 
      646.53 MB memory is utilized for (T)

 0%       25%       50%       75%       100%
 |---------|---------|---------|---------| 
 
 (T) correction [au]:                   -0.002565032755
 CCSD(T) correlation energy [au]:       -0.071519796127
 
 CPU time [min]:  9530.874                   Wall time [min]:   265.089
 
 MO:    93
 Number of atoms in domain:      24
 Number of atomic orbitals:    1169
 Number of atoms for local DF:   24
 Number of fitting functions:  2894 (100.00%)
 Warning: drop high-lying PAOs                     5
 Number of occupied orbitals:    71
 Number of virtual  orbitals:  1047
 Number of Cholesky vectors:      7
 MP2 energy in ED [au]:          -0.073663496578
 Number of occupied LNOs:        52  (73.24%)
 Number of virtual  LNOs:       178  (17.00%)
dropped smallnorm    95    96   4.95145239E-06
 tol*100>norm                   106  1.314457923425989E-005
 tol*100>norm                   107  1.490341593685164E-005
 tol*100>norm                   108  1.486697851025094E-005
dropped smallnorm   383   385   5.50070167E-06
 tol*100>norm                   395  1.633265969160749E-005
 tol*100>norm                   396  1.646941153167140E-005
 tol*100>norm                   397  1.632997925719341E-005
dropped smallnorm   441   444   5.47854582E-06
 tol*100>norm                   454  1.632759249201643E-005
 tol*100>norm                   455  1.645104029684953E-005
 tol*100>norm                   456  1.645856858268912E-005
 small norm                   105  1.314457923425998E-005
 small norm                   106  1.490341593685163E-005
 small norm                   107  1.486697851025106E-005
 small norm                   393  1.633265969160764E-005
 small norm                   394  1.646941153167147E-005
 small norm                   395  1.632997925719312E-005
 small norm                   451  1.632759249201644E-005
 small norm                   452  1.645104029684941E-005
 small norm                   453  1.645856858268925E-005
 Number of Cholesky vectors:      6
 MP2 energy in LIS [au]:         -0.073353817782
 Correction for frozen LNO [au]: -0.000309678796     (0.420%)
 Number of NAFs:                677  (23.39%)
 CPU time [min]:  9623.198                   Wall time [min]:   267.617
 

 Direct DF-CCSD(T) calculation
 
 Convergence criterion:  1.0E-05
 
 Number of occupied/virtual/auxiliary orbitals:    52   178   677
   1938.25 MB is the minimal memory requirement for (T)
   1361.72 MB is the minimal memory requirement for CCSD
 
 MP2 correlation energy [au]:       -1.648576496843
 
 LMP2 domain correlation energy contribution [au]:       -0.073354078998
 
 CPU time [min]:  9623.960                   Wall time [min]:   267.720
 
 
 Starting CCSD iterations...
 
                     Residual norm       Correlation Energy
 Iteration  1        0.307710260283       -1.638183880398
 Iteration  2        0.088995155549       -1.677360910779
 Iteration  3        0.031520267536       -1.685062001865
 Iteration  4        0.007904432752       -1.685009434138
 Iteration  5        0.002760061233       -1.684914736428
 Iteration  6        0.000901797807       -1.684956436842
 Iteration  7        0.000387726098       -1.684964790369
 Iteration  8        0.000139650174       -1.684955390214
 Iteration  9        0.000052609816       -1.684953096403
 
 CCSD iteration has converged in  9 steps.
     5133.46 MB memory was utilized by CCSD
 
 T1 diagnostic:      1.251E-02            D1 diagnostic:      4.957E-02
 
 T1 contribution [au]:                         0.000000000000
 CCSD correlation energy [au]:                -0.072408769403
 
 CPU time [min]:  9739.735                   Wall time [min]:   271.416
 
 Calculation of (T) correction...
 
 Laplace threshold, nquadmin:  1.00E-03   4
 Number of quadrature points:    4
 
     4529.42 MB memory is utilized for (T)

 0%       25%       50%       75%       100%
 |---------|---------|---------|---------| 
 
 (T) correction [au]:                   -0.003160867442
 CCSD(T) correlation energy [au]:       -0.075569636845
 
 CPU time [min]:  9867.959                   Wall time [min]:   274.744
 
 **********************************************************************
 Dimensions of the extended domains:    Minimum / Average / Maximum
 
 Number of atoms in domain:                  24      24.0        24
 Number of atomic orbitals:                1169    1169.0      1169
 Number of fitting functions:              2470    2802.8      2894
 Number of occupied localized MOs:           22      47.3        93
 Number of PAOs:                            939    1024.6      1047
 Number of occupied LNOs:                     9      28.7        52
 Number of virtual  LNOs:                    61     107.9       178
 Number of NAFs:                            190     381.7       677
 
 **********************************************************************
 Distant (and weak) pair contributions, corrections
 
 Sum of pair energies [au]:                    -0.001712827752    (0.027%)
 Sum of energy corrections [au]:               -0.016798123990    (0.265%)
 Pair energies + LNO corrections [au]:         -0.018510951742
 Sum of LMP2 contributions [au]:               -6.340699392538
 
 **********************************************************************
  Time of manipulations in the EDs:      max CPU/Wall [s]  all CPU/Wall [min]
 
 PD construction & multipole pair E    1701.09    42.86    28.35     0.71
 Construct MO basis of the ED            22.67     0.57    29.16     0.80
 (mu,nu|P) evaluation & trf 2 (ai|P)   2176.49    55.88  1733.56    43.60
 Evaluate MP2 energy of the ED          332.10     8.32   239.83     6.01
 Transformations to the LNO basis       109.54     2.74    88.92     2.23
 Build W_PQ (Jai or Jpi part)             7.33     0.18     5.28     0.13
 Evaluate MP2 energy of the LIS           6.45     0.16     2.96     0.07
 (mu,nu|P) evaluation & trf 2 J(abQ)   3445.42    99.15  3283.90    91.62
 Total of the above for all EDs        6099.99   167.01  5383.61   144.46
 
 **********************************************************************
 Maximum memory requirement [MB]:       
 
 PD construction & multipole pair E        107.5
 AO integral evaluation in the EDs        1324.7
 (mu,nu|P) evaluation & trf 2 (aI|P)      7927.5
 Evaluate MP2 energy in the EDs           5149.5
 Transformation to the LNO basis          1184.2
 (mu,nu|P) to Jab transformation          2107.4
 Evaluate MP2 energy in the LIS           1240.2
 Minimum requirement for LIS CCSD         1361.7
 Actually allocated  for LIS CCSD         5133.5
 Minimum requirement for LIS (T)          1938.3
 Actually allocated  for LIS (T)          4529.4
 
 ======================================================================
 ======================================================================
 
 
 
 ======================================================================
 ======================================================================
 
 Final local CC results:
 
 Minimum number of correlated electrons:        18       (  9.7%)
 Maximum number of correlated electrons:       104       ( 55.9%)
 Average number of correlated electrons:        57.4     ( 30.9%)
 Minimum number of correlated orbitals:         80       (  7.0%)
 Maximum number of correlated orbitals:        230       ( 20.1%)
 Average number of correlated orbitals:        136.6     ( 11.9%)
 
 CPU time for integral calculations [min]:                 18.220
 Wall time for integral calculations [min]:                 3.767
 
 CPU time for SCF calculation [min]:                      238.559
 Wall time for SCF calculation [min]:                       6.044
 
 CPU time for orbital localization [min]:                   0.399
 Wall time for orbital localization [min]:                  0.115
 
 CPU time for integral transformations [min]:            5474.186
 Wall time for integral transformations [min]:            146.936
 
 Reference energy [au]:                                -11691.142404678478
 
 LMP2 correlation energy [au]:                             -6.340699392538
 Total LMP2 energy [au]:                               -11697.483104071016
 
 Total MP2 correction for dropped NAFs [au]:               -0.000363686254
 Total MP2 correction [au]:                                -0.018874637995
 
 CPU time for CCSD calculations [min]:                   2133.706
 Total CPU time for CCSD [min]:                          7865.070
 Wall time for CCSD calculations [min]:                    69.087
 Total wall time for CCSD [min]:                          225.950
 
 CCSD correlation energy [au]:                             -6.304285959743
 Total CCSD energy [au]:                               -11697.446690638220
 CCSD correlation energy + 0.5 MP2 corrections [au]:       -6.313723278741
 Total LNO-CCSD energy with MP2 corrections [au]:      -11697.456127957219
 
 CPU time for (T) corrections [min]:                     2260.142
 Total CPU time for CCSD(T) [min]:                      10125.213
 Wall time for (T) corrections [min]:                      58.732
 Total wall time for CCSD(T) [min]:                       284.682
 
 Total (T) correlation energy contribution [au]:           -0.219114518975
 Total (T) correlation energy+0.5 MP2 correction [au]:     -0.228551837973
 CCSD(T) correlation energy [au]:                          -6.523400478719
 Total CCSD(T) energy [au]:                            -11697.665805157196
 CCSD(T) correlation energy + MP2 corrections [au]:        -6.542275116714
 Total LNO-CCSD(T) energy with MP2 corrections [au]:   -11697.684679795191
 
 ======================================================================
 ======================================================================
 
 ************************ 2022-11-14 05:58:57 *************************
                      Normal termination of mrcc.
 **********************************************************************
