 vasp.6.3.0 20Jan22 (build Apr  1 2022 16:44:48) complex                         
 executed on        HPECrayEX_GCC date 2023.05.17  21:47:38
 running  512 mpi-ranks, with    1 threads/rank
 distrk:  each k-point on  256 cores,    2 groups
 distr:  one band on NCORE=   4 cores,   64 groups


--------------------------------------------------------------------------------------------------------


 INCAR:
   SYSTEM = MgO-rocksalt
   ISMEAR = 0
   SIGMA = 0.05
   EDIFF = 1E-6
   ALGO = ALL
   ISTART = 0
   IBRION = -1
   NSW = 0
   ISYM = 2
   ISIF = 2
   EDIFFG = -0.01
   DIPOL = 0.5 0.5 0.5
   IDIPOL = 3
   LDIPOL = .TRUE.
   GGA = RE
   LUSE_VDW = .TRUE.
   AGGAC = 0.0
   ENCUT = 600
   PREC = Normal
   LASPH = .TRUE.
   LREAL = .FALSE.
   ISPIN = 1
   NELM = 200
   NELMIN = 8
   NCORE = 4
   KPAR = 2
   LWAVE = .FALSE.
   LCHARG = .FALSE.

 POTCAR:    PAW_PBE C 08Apr2002                   
 POTCAR:    PAW_PBE O 08Apr2002                   
 POTCAR:    PAW_PBE Mg_pv 13Apr2007               
 POTCAR:    PAW_PBE O 08Apr2002                   
 -----------------------------------------------------------------------------
|                                                                             |
|               ----> ADVICE to this user running VASP <----                  |
|                                                                             |
|     You have switched on vdW-DFT.                                           |
|     This routine was written and supplied by Jiri Klimes. We recommend      |
|     that you carefully read and cite the following publications:            |
|       J. Klimes, D.R. Bowler, A. Michelides                                 |
|          J. Phys.: Cond Matt. 22 022201 (2010)                              |
|       J. Klimes, D.R. Bowler, A. Michelides                                 |
|          Phys. Rev. B. 83, 195131 (2011)                                    |
|     and references therein.                                                 |
|                                                                             |
 -----------------------------------------------------------------------------

 POTCAR:    PAW_PBE C 08Apr2002                   
   SHA256 =  253f7b50bb8d59471dbedb8285d89021f4a42ed1a2c5d38a03a736e69125dd95 C/POTCAR              
   COPYR  = (c) Copyright 08Apr2002 Georg Kresse                                                    
   COPYR  = This file is part of the software VASP. Any use, copying, and all other rights are regul
   COPYR  = If you do not have a valid VASP license, you may not use, copy or distribute this file. 
   VRHFIN =C: s2p2                                                                                  
   LEXCH  = PE                                                                                      
   EATOM  =   147.1560 eV,   10.8157 Ry                                                             
                                                                                                    
   TITEL  = PAW_PBE C 08Apr2002                                                                     
   LULTRA =        F    use ultrasoft PP ?                                                          
   IUNSCR =        1    unscreen: 0-lin 1-nonlin 2-no                                               
   RPACOR =    1.200    partial core radius                                                         
   POMASS =   12.011; ZVAL   =    4.000    mass and valenz                                          
   RCORE  =    1.500    outmost cutoff radius                                                       
   RWIGS  =    1.630; RWIGS  =    0.863    wigner-seitz radius (au A)                               
   ENMAX  =  400.000; ENMIN  =  300.000 eV                                                          
   ICORE  =        2    local potential                                                             
   LCOR   =        T    correct aug charges                                                         
   LPAW   =        T    paw PP                                                                      
   EAUG   =  644.873                                                                                
   DEXC   =    0.000                                                                                
   RMAX   =    1.529    core radius for proj-oper                                                   
   RAUG   =    1.300    factor for augmentation sphere                                              
   RDEP   =    1.501    radius for radial grids                                                     
   RDEPT  =    1.300    core radius for aug-charge                                                  
                                                                                                    
   Atomic configuration                                                                             
    4 entries                                                                                       
     n  l   j            E        occ.                                                              
     1  0  0.50      -273.3789   2.0000                                                             
     2  0  0.50       -13.7508   2.0000                                                             
     2  1  0.50        -5.2854   2.0000                                                             
     3  2  1.50        -5.4423   0.0000                                                             
   Description                                                                                      
     l       E           TYP  RCUT    TYP  RCUT                                                     
     0    -13.7508458     23  1.200                                                                 
     0     -8.2022199     23  1.200                                                                 
     1     -5.2854383     23  1.500                                                                 
     1     34.0145650     23  1.500                                                                 
     2     -5.4423304      7  1.500                                                                 
  local pseudopotential read in
  partial core-charges read in
  partial kinetic energy density read in
  atomic valenz-charges read in
  non local Contribution for L=           0  read in
    real space projection operators read in
  non local Contribution for L=           0  read in
    real space projection operators read in
  non local Contribution for L=           1  read in
    real space projection operators read in
  non local Contribution for L=           1  read in
    real space projection operators read in
    PAW grid and wavefunctions read in

   number of l-projection  operators is LMAX  =           4
   number of lm-projection operators is LMMAX =           8

 POTCAR:    PAW_PBE O 08Apr2002                   
   SHA256 =  818f92134a0a090dccd8ba1447fa70422a3b330e708bb4f08108d8ae51209ddf O/POTCAR              
   COPYR  = (c) Copyright 08Apr2002 Georg Kresse                                                    
   COPYR  = This file is part of the software VASP. Any use, copying, and all other rights are regul
   COPYR  = If you do not have a valid VASP license, you may not use, copy or distribute this file. 
   VRHFIN =O: s2p4                                                                                  
   LEXCH  = PE                                                                                      
   EATOM  =   432.3788 eV,   31.7789 Ry                                                             
                                                                                                    
   TITEL  = PAW_PBE O 08Apr2002                                                                     
   LULTRA =        F    use ultrasoft PP ?                                                          
   IUNSCR =        1    unscreen: 0-lin 1-nonlin 2-no                                               
   RPACOR =    1.200    partial core radius                                                         
   POMASS =   16.000; ZVAL   =    6.000    mass and valenz                                          
   RCORE  =    1.520    outmost cutoff radius                                                       
   RWIGS  =    1.550; RWIGS  =    0.820    wigner-seitz radius (au A)                               
   ENMAX  =  400.000; ENMIN  =  300.000 eV                                                          
   ICORE  =        2    local potential                                                             
   LCOR   =        T    correct aug charges                                                         
   LPAW   =        T    paw PP                                                                      
   EAUG   =  605.392                                                                                
   DEXC   =    0.000                                                                                
   RMAX   =    1.553    core radius for proj-oper                                                   
   RAUG   =    1.300    factor for augmentation sphere                                              
   RDEP   =    1.550    radius for radial grids                                                     
   RDEPT  =    1.329    core radius for aug-charge                                                  
                                                                                                    
   Atomic configuration                                                                             
    4 entries                                                                                       
     n  l   j            E        occ.                                                              
     1  0  0.50      -514.6923   2.0000                                                             
     2  0  0.50       -23.9615   2.0000                                                             
     2  1  0.50        -9.0305   4.0000                                                             
     3  2  1.50        -9.5241   0.0000                                                             
   Description                                                                                      
     l       E           TYP  RCUT    TYP  RCUT                                                     
     0    -23.9615318     23  1.200                                                                 
     0     -9.5240782     23  1.200                                                                 
     1     -9.0304911     23  1.520                                                                 
     1      8.1634956     23  1.520                                                                 
     2     -9.5240782      7  1.500                                                                 
  local pseudopotential read in
  partial core-charges read in
  partial kinetic energy density read in
  kinetic energy density of atom read in
  atomic valenz-charges read in
  non local Contribution for L=           0  read in
    real space projection operators read in
  non local Contribution for L=           0  read in
    real space projection operators read in
  non local Contribution for L=           1  read in
    real space projection operators read in
  non local Contribution for L=           1  read in
    real space projection operators read in
    PAW grid and wavefunctions read in

   number of l-projection  operators is LMAX  =           4
   number of lm-projection operators is LMMAX =           8

 POTCAR:    PAW_PBE Mg_pv 13Apr2007               
   SHA256 =  f474ac0dd33840b9ae76c01d57fea79fdf77cdfbb07d5ade72c65f83c709b62b Mg_pv/POTCAR          
   COPYR  = (c) Copyright 13Apr2007 Georg Kresse                                                    
   COPYR  = This file is part of the software VASP. Any use, copying, and all other rights are regul
   COPYR  = If you do not have a valid VASP license, you may not use, copy or distribute this file. 
   VRHFIN =Mg: p6s2                                                                                 
   LEXCH  = PE                                                                                      
   EATOM  =  1056.7344 eV,   77.6678 Ry                                                             
                                                                                                    
   TITEL  = PAW_PBE Mg_pv 13Apr2007                                                                 
   LULTRA =        F    use ultrasoft PP ?                                                          
   IUNSCR =        1    unscreen: 0-lin 1-nonlin 2-no                                               
   RPACOR =    1.500    partial core radius                                                         
   POMASS =   24.305; ZVAL   =    8.000    mass and valenz                                          
   RCORE  =    2.000    outmost cutoff radius                                                       
   RWIGS  =    2.000; RWIGS  =    1.058    wigner-seitz radius (au A)                               
   ENMAX  =  403.929; ENMIN  =  302.947 eV                                                          
   RCLOC  =    1.506    cutoff for local pot                                                        
   LCOR   =        T    correct aug charges                                                         
   LPAW   =        T    paw PP                                                                      
   EAUG   =  758.780                                                                                
   DEXC   =    0.000                                                                                
   RMAX   =    2.045    core radius for proj-oper                                                   
   RAUG   =    1.300    factor for augmentation sphere                                              
   RDEP   =    2.025    radius for radial grids                                                     
   RDEPT  =    1.557    core radius for aug-charge                                                  
                                                                                                    
   Atomic configuration                                                                             
    5 entries                                                                                       
     n  l   j            E        occ.                                                              
     1  0  0.50     -1259.6230   2.0000                                                             
     2  0  0.50       -79.8442   2.0000                                                             
     2  1  1.50       -46.6121   6.0000                                                             
     3  0  0.50        -4.7055   2.0000                                                             
     3  2  1.50        -1.3606   0.0000                                                             
   Description                                                                                      
     l       E           TYP  RCUT    TYP  RCUT                                                     
     1    -46.6121073     23  1.600                                                                 
     1      2.7211652     23  1.600                                                                 
     0     -4.7054661     23  2.000                                                                 
     0     61.2262170     23  2.000                                                                 
     2     -1.3605826     23  2.000                                                                 
  local pseudopotential read in
  partial core-charges read in
  partial kinetic energy density read in
  atomic valenz-charges read in
  non local Contribution for L=           1  read in
    real space projection operators read in
  non local Contribution for L=           1  read in
    real space projection operators read in
  non local Contribution for L=           0  read in
    real space projection operators read in
  non local Contribution for L=           0  read in
    real space projection operators read in
  non local Contribution for L=           2  read in
    real space projection operators read in
    PAW grid and wavefunctions read in

   number of l-projection  operators is LMAX  =           5
   number of lm-projection operators is LMMAX =          13

 POTCAR:    PAW_PBE O 08Apr2002                   
   SHA256 =  818f92134a0a090dccd8ba1447fa70422a3b330e708bb4f08108d8ae51209ddf O/POTCAR              
   COPYR  = (c) Copyright 08Apr2002 Georg Kresse                                                    
   COPYR  = This file is part of the software VASP. Any use, copying, and all other rights are regul
   COPYR  = If you do not have a valid VASP license, you may not use, copy or distribute this file. 
   VRHFIN =O: s2p4                                                                                  
   LEXCH  = PE                                                                                      
   EATOM  =   432.3788 eV,   31.7789 Ry                                                             
                                                                                                    
   TITEL  = PAW_PBE O 08Apr2002                                                                     
   LULTRA =        F    use ultrasoft PP ?                                                          
   IUNSCR =        1    unscreen: 0-lin 1-nonlin 2-no                                               
   RPACOR =    1.200    partial core radius                                                         
   POMASS =   16.000; ZVAL   =    6.000    mass and valenz                                          
   RCORE  =    1.520    outmost cutoff radius                                                       
   RWIGS  =    1.550; RWIGS  =    0.820    wigner-seitz radius (au A)                               
   ENMAX  =  400.000; ENMIN  =  300.000 eV                                                          
   ICORE  =        2    local potential                                                             
   LCOR   =        T    correct aug charges                                                         
   LPAW   =        T    paw PP                                                                      
   EAUG   =  605.392                                                                                
   DEXC   =    0.000                                                                                
   RMAX   =    1.553    core radius for proj-oper                                                   
   RAUG   =    1.300    factor for augmentation sphere                                              
   RDEP   =    1.550    radius for radial grids                                                     
   RDEPT  =    1.329    core radius for aug-charge                                                  
                                                                                                    
   Atomic configuration                                                                             
    4 entries                                                                                       
     n  l   j            E        occ.                                                              
     1  0  0.50      -514.6923   2.0000                                                             
     2  0  0.50       -23.9615   2.0000                                                             
     2  1  0.50        -9.0305   4.0000                                                             
     3  2  1.50        -9.5241   0.0000                                                             
   Description                                                                                      
     l       E           TYP  RCUT    TYP  RCUT                                                     
     0    -23.9615318     23  1.200                                                                 
     0     -9.5240782     23  1.200                                                                 
     1     -9.0304911     23  1.520                                                                 
     1      8.1634956     23  1.520                                                                 
     2     -9.5240782      7  1.500                                                                 
  local pseudopotential read in
  partial core-charges read in
  partial kinetic energy density read in
  kinetic energy density of atom read in
  atomic valenz-charges read in
  non local Contribution for L=           0  read in
    real space projection operators read in
  non local Contribution for L=           0  read in
    real space projection operators read in
  non local Contribution for L=           1  read in
    real space projection operators read in
  non local Contribution for L=           1  read in
    real space projection operators read in
    PAW grid and wavefunctions read in

   number of l-projection  operators is LMAX  =           4
   number of lm-projection operators is LMMAX =           8

 -----------------------------------------------------------------------------
|                                                                             |
|               ----> ADVICE to this user running VASP <----                  |
|                                                                             |
|     You have a (more or less) 'large supercell' and for larger cells it     |
|     might be more efficient to use real-space projection operators.         |
|     Therefore, try LREAL= Auto in the INCAR file.                           |
|     Mind: For very accurate calculation, you might also keep the            |
|     reciprocal projection scheme (i.e. LREAL=.FALSE.).                      |
|                                                                             |
 -----------------------------------------------------------------------------

 -----------------------------------------------------------------------------
|                                                                             |
|               ----> ADVICE to this user running VASP <----                  |
|                                                                             |
|     You enforced a specific xc type in the INCAR file but a different       |
|     type was found in the POTCAR file.                                      |
|     I HOPE YOU KNOW WHAT YOU ARE DOING!                                     |
|                                                                             |
 -----------------------------------------------------------------------------

  PAW_PBE C 08Apr2002                   :
 energy of atom  1       EATOM= -147.1560
 kinetic energy error for atom=    0.0057 (will be added to EATOM!!)
  PAW_PBE O 08Apr2002                   :
 energy of atom  2       EATOM= -432.3788
 kinetic energy error for atom=    0.0168 (will be added to EATOM!!)
  PAW_PBE Mg_pv 13Apr2007               :
 energy of atom  3       EATOM=-1056.7344
 kinetic energy error for atom=    0.0221 (will be added to EATOM!!)
  PAW_PBE O 08Apr2002                   :
 energy of atom  4       EATOM= -432.3788
 kinetic energy error for atom=    0.0168 (will be added to EATOM!!)


 POSCAR:  C  O Mg  O
  positions in direct lattice
  No initial velocities read in
 exchange correlation table for  LEXCH =       40
   RHO(1)=    0.500       N(1)  =     2000
   RHO(2)=  100.500       N(2)  =     4000



--------------------------------------------------------------------------------------------------------


 ion  position               nearest neighbor table
   1  0.500  0.500  0.770-   2 1.15
   2  0.500  0.500  0.824-   1 1.15
   3  0.000  0.750  0.352-  35 2.11  37 2.11  38 2.11  45 2.11  54 2.11
   4  0.250  0.000  0.352-  36 2.11  37 2.11  38 2.11  46 2.11  53 2.11
   5  0.000  0.000  0.451-  37 2.11  36 2.11  35 2.11  43 2.11  52 2.11  41 2.12
   6  0.250  0.750  0.451-  38 2.11  36 2.11  35 2.11  44 2.11  51 2.11  42 2.12
   7  0.000  0.750  0.550-  49 2.11  42 2.11  58 2.11  41 2.11  35 2.12  39 2.15
   8  0.250  0.000  0.550-  57 2.11  50 2.11  42 2.11  41 2.11  36 2.12  40 2.15
   9  0.000  0.000  0.649-  39 2.11  40 2.11  47 2.11  56 2.11  41 2.11
  10  0.250  0.750  0.649-  42 2.11  40 2.11  39 2.11  48 2.11  55 2.11
  11  0.000  0.250  0.352-  43 2.11  37 2.11  45 2.11  46 2.11  62 2.11
  12  0.250  0.500  0.352-  44 2.11  38 2.11  45 2.11  46 2.11  61 2.11
  13  0.000  0.500  0.451-  45 2.11  43 2.11  44 2.11  35 2.11  60 2.11  49 2.12
  14  0.250  0.250  0.451-  46 2.11  43 2.11  44 2.11  36 2.11  59 2.11  50 2.12
  15  0.000  0.250  0.550-  49 2.11  50 2.11  66 2.11  41 2.11  43 2.12  47 2.15
  16  0.250  0.500  0.550-  65 2.11  50 2.11  42 2.11  49 2.11  44 2.13  48 2.15
  17  0.000  0.500  0.649-  48 2.10  64 2.10  49 2.11  47 2.11  39 2.11
  18  0.250  0.250  0.649-  50 2.11  47 2.11  40 2.11  48 2.11  63 2.11
  19  0.500  0.750  0.352-  51 2.11  38 2.11  53 2.11  54 2.11  61 2.11
  20  0.750  0.000  0.352-  52 2.11  37 2.11  53 2.11  54 2.11  62 2.11
  21  0.500  0.000  0.451-  53 2.11  51 2.11  52 2.11  36 2.11  59 2.11  57 2.12
  22  0.750  0.750  0.451-  54 2.11  51 2.11  52 2.11  35 2.11  60 2.11  58 2.12
  23  0.500  0.750  0.550-  65 2.11  58 2.11  42 2.11  57 2.11  51 2.13  55 2.15
  24  0.750  0.000  0.550-  57 2.11  58 2.11  66 2.11  41 2.11  52 2.12  56 2.15
  25  0.500  0.000  0.649-  55 2.10  63 2.10  57 2.11  40 2.11  56 2.11
  26  0.750  0.750  0.649-  58 2.11  56 2.11  39 2.11  55 2.11  64 2.11
  27  0.500  0.250  0.352-  59 2.11  53 2.11  46 2.11  61 2.11  62 2.11
  28  0.750  0.500  0.352-  60 2.11  54 2.11  45 2.11  61 2.11  62 2.11
  29  0.500  0.500  0.451-  61 2.11  51 2.11  59 2.11  60 2.11  44 2.11  65 2.13
  30  0.750  0.250  0.451-  62 2.11  52 2.11  59 2.11  60 2.11  43 2.11  66 2.12
  31  0.500  0.250  0.550-  65 2.11  50 2.11  66 2.11  57 2.11  59 2.13  63 2.15
  32  0.750  0.500  0.550-  65 2.11  58 2.11  66 2.11  49 2.11  60 2.13  64 2.15
  33  0.500  0.500  0.651-  48 2.12  55 2.12  63 2.12  64 2.12  65 2.14
  34  0.750  0.250  0.649-  66 2.11  56 2.11  47 2.11  64 2.11  63 2.11
  35  0.000  0.750  0.451-   3 2.11   5 2.11   6 2.11  13 2.11  22 2.11   7 2.12
  36  0.250  0.000  0.451-   4 2.11   5 2.11   6 2.11  14 2.11  21 2.11   8 2.12
  37  0.000  0.000  0.352-   5 2.11   4 2.11   3 2.11  11 2.11  20 2.11
  38  0.250  0.750  0.352-   6 2.11   4 2.11   3 2.11  12 2.11  19 2.11
  39  0.000  0.750  0.651-   9 2.11  10 2.11  26 2.11  17 2.11   7 2.15
  40  0.250  0.000  0.651-   9 2.11  10 2.11  18 2.11  25 2.11   8 2.15
  41  0.000  0.000  0.550-   9 2.11   8 2.11   7 2.11  15 2.11  24 2.11   5 2.12
  42  0.250  0.750  0.550-  10 2.11   8 2.11   7 2.11  16 2.11  23 2.11   6 2.12
  43  0.000  0.250  0.451-  11 2.11   5 2.11  13 2.11  14 2.11  30 2.11  15 2.12
  44  0.250  0.500  0.451-  12 2.11   6 2.11  13 2.11  14 2.11  29 2.11  16 2.13
  45  0.000  0.500  0.352-  13 2.11  11 2.11  12 2.11   3 2.11  28 2.11
  46  0.250  0.250  0.352-  14 2.11  11 2.11  12 2.11   4 2.11  27 2.11
  47  0.000  0.250  0.651-   9 2.11  18 2.11  34 2.11  17 2.11  15 2.15
  48  0.249  0.500  0.651-  17 2.10  10 2.11  18 2.11  33 2.12  16 2.15
  49  0.000  0.500  0.550-  17 2.11  15 2.11   7 2.11  16 2.11  32 2.11  13 2.12
  50  0.250  0.250  0.550-  18 2.11  15 2.11   8 2.11  16 2.11  31 2.11  14 2.12
  51  0.500  0.750  0.451-  19 2.11   6 2.11  21 2.11  22 2.11  29 2.11  23 2.13
  52  0.750  0.000  0.451-  20 2.11   5 2.11  21 2.11  22 2.11  30 2.11  24 2.12
  53  0.500  0.000  0.352-  21 2.11  19 2.11  20 2.11   4 2.11  27 2.11
  54  0.750  0.750  0.352-  22 2.11  19 2.11  20 2.11   3 2.11  28 2.11
  55  0.500  0.751  0.651-  25 2.10  10 2.11  26 2.11  33 2.12  23 2.15
  56  0.750  0.000  0.651-   9 2.11  26 2.11  34 2.11  25 2.11  24 2.15
  57  0.500  0.000  0.550-  25 2.11  24 2.11   8 2.11  23 2.11  31 2.11  21 2.12
  58  0.750  0.750  0.550-  26 2.11  24 2.11   7 2.11  32 2.11  23 2.11  22 2.12
  59  0.500  0.250  0.451-  27 2.11  21 2.11  14 2.11  29 2.11  30 2.11  31 2.13
  60  0.750  0.500  0.451-  28 2.11  22 2.11  13 2.11  29 2.11  30 2.11  32 2.13
  61  0.500  0.500  0.352-  29 2.11  19 2.11  27 2.11  28 2.11  12 2.11
  62  0.750  0.250  0.352-  30 2.11  20 2.11  27 2.11  28 2.11  11 2.11
  63  0.500  0.249  0.651-  25 2.10  18 2.11  34 2.11  33 2.12  31 2.15
  64  0.751  0.500  0.651-  17 2.10  26 2.11  34 2.11  33 2.12  32 2.15
  65  0.500  0.500  0.550-  16 2.11  23 2.11  31 2.11  32 2.11  29 2.13  33 2.14
  66  0.750  0.250  0.550-  34 2.11  24 2.11  15 2.11  32 2.11  31 2.11  30 2.12

  LATTYP: Found a simple tetragonal cell.
 ALAT       =     8.4409846542
 C/A-ratio  =     2.5270438657
  
  Lattice vectors:
  
 A1 = (   8.4409846542,   0.0000000000,   0.0000000000)
 A2 = (   0.0000000000,   8.4409846542,   0.0000000000)
 A3 = (   0.0000000000,   0.0000000000,  21.3307384906)


Analysis of symmetry for initial positions (statically):
=====================================================================
 Subroutine PRICEL returns:
 Original cell was already a primitive cell.
 

 Routine SETGRP: Setting up the symmetry group for a 
 simple tetragonal supercell.


 Subroutine GETGRP returns: Found  8 space group operations
 (whereof  8 operations were pure point group operations)
 out of a pool of 16 trial point group operations.


The static configuration has the point symmetry C_4v.


Analysis of symmetry for dynamics (positions and initial velocities):
=====================================================================
 Subroutine PRICEL returns:
 Original cell was already a primitive cell.
 

 Routine SETGRP: Setting up the symmetry group for a 
 simple tetragonal supercell.


 Subroutine GETGRP returns: Found  8 space group operations
 (whereof  8 operations were pure point group operations)
 out of a pool of 16 trial point group operations.


The dynamic configuration has the point symmetry C_4v.


 Subroutine INISYM returns: Found  8 space group operations
 (whereof  8 operations are pure point group operations),
 and found     1 'primitive' translations


----------------------------------------------------------------------------------------

                                     Primitive cell                                     

  volume of cell :    1519.8199

  direct lattice vectors                    reciprocal lattice vectors
     8.440984654  0.000000000  0.000000000     0.118469591  0.000000000  0.000000000
     0.000000000  8.440984654  0.000000000     0.000000000  0.118469591  0.000000000
     0.000000000  0.000000000 21.330738491     0.000000000  0.000000000  0.046880702

  length of vectors
     8.440984654  8.440984654 21.330738491     0.118469591  0.118469591  0.046880702

  position of ions in fractional coordinates (direct lattice)
     0.500000000  0.500000000  0.770162751
     0.500000000  0.500000000  0.823926469
     0.000000000  0.750000000  0.351605267
     0.250000000  0.000000000  0.351605267
     0.000000000  0.000000000  0.450535089
     0.250000000  0.750000000  0.450535089
     0.000000000  0.749939268  0.550083239
     0.250060732  0.000000000  0.550083239
     0.000000000  0.000000000  0.648745309
     0.249858327  0.750141673  0.648569547
     0.000000000  0.250000000  0.351605267
     0.250000000  0.500000000  0.351605267
     0.000000000  0.500000000  0.450535089
     0.250000000  0.250000000  0.450535089
     0.000000000  0.250060732  0.550083239
     0.250378379  0.500000000  0.550219524
     0.000000000  0.500000000  0.648615280
     0.249858327  0.249858327  0.648569547
     0.500000000  0.750000000  0.351605267
     0.750000000  0.000000000  0.351605267
     0.500000000  0.000000000  0.450535089
     0.750000000  0.750000000  0.450535089
     0.500000000  0.749621621  0.550219524
     0.749939268  0.000000000  0.550083239
     0.500000000  0.000000000  0.648615280
     0.750141673  0.750141673  0.648569547
     0.500000000  0.250000000  0.351605267
     0.750000000  0.500000000  0.351605267
     0.500000000  0.500000000  0.450535089
     0.750000000  0.250000000  0.450535089
     0.500000000  0.250378379  0.550219524
     0.749621621  0.500000000  0.550219524
     0.500000000  0.500000000  0.650616960
     0.750141673  0.249858327  0.648569547
     0.000000000  0.750000000  0.450535089
     0.250000000  0.000000000  0.450535089
     0.000000000  0.000000000  0.351605267
     0.250000000  0.750000000  0.351605267
     0.000000000  0.750218533  0.650979255
     0.249781467  0.000000000  0.650979255
     0.000000000  0.000000000  0.549809890
     0.249945770  0.750054230  0.549859113
     0.000000000  0.250000000  0.450535089
     0.250000000  0.500000000  0.450535089
     0.000000000  0.500000000  0.351605267
     0.250000000  0.250000000  0.351605267
     0.000000000  0.249781467  0.650979255
     0.248822710  0.500000000  0.650882872
     0.000000000  0.500000000  0.549762666
     0.249945770  0.249945770  0.549859113
     0.500000000  0.750000000  0.450535089
     0.750000000  0.000000000  0.450535089
     0.500000000  0.000000000  0.351605267
     0.750000000  0.750000000  0.351605267
     0.500000000  0.751177290  0.650882872
     0.750218533  0.000000000  0.650979255
     0.500000000  0.000000000  0.549762666
     0.750054230  0.750054230  0.549859113
     0.500000000  0.250000000  0.450535089
     0.750000000  0.500000000  0.450535089
     0.500000000  0.500000000  0.351605267
     0.750000000  0.250000000  0.351605267
     0.500000000  0.248822710  0.650882872
     0.751177290  0.500000000  0.650882872
     0.500000000  0.500000000  0.550231357
     0.750054230  0.249945770  0.549859113

  ion indices of the primitive-cell ions
   primitive index   ion index
                 1           1
                 2           2
                 3           3
                 4           4
                 5           5
                 6           6
                 7           7
                 8           8
                 9           9
                10          10
                11          11
                12          12
                13          13
                14          14
                15          15
                16          16
                17          17
                18          18
                19          19
                20          20
                21          21
                22          22
                23          23
                24          24
                25          25
                26          26
                27          27
                28          28
                29          29
                30          30
                31          31
                32          32
                33          33
                34          34
                35          35
                36          36
                37          37
                38          38
                39          39
                40          40
                41          41
                42          42
                43          43
                44          44
                45          45
                46          46
                47          47
                48          48
                49          49
                50          50
                51          51
                52          52
                53          53
                54          54
                55          55
                56          56
                57          57
                58          58
                59          59
                60          60
                61          61
                62          62
                63          63
                64          64
                65          65
                66          66

----------------------------------------------------------------------------------------



 KPOINTS: pymatgen v2020.8.13 with grid density = 

Automatic generation of k-mesh.
 Grid dimensions read from file:
 generate k-points for:    2    2    1

 Generating k-lattice:

  Cartesian coordinates                     Fractional coordinates (reciprocal lattice)
     0.059234796  0.000000000  0.000000000     0.500000000  0.000000000  0.000000000
     0.000000000  0.059234796  0.000000000     0.000000000  0.500000000  0.000000000
     0.000000000  0.000000000  0.046880702     0.000000000  0.000000000  1.000000000

  Length of vectors
     0.059234796  0.059234796  0.046880702

  Shift w.r.t. Gamma in fractional coordinates (k-lattice)
     0.000000000  0.000000000  0.000000000

 
 Subroutine IBZKPT returns following result:
 ===========================================
 
 Found      3 irreducible k-points:
 
 Following reciprocal coordinates:
            Coordinates               Weight
  0.000000  0.000000  0.000000      1.000000
  0.500000  0.000000  0.000000      2.000000
  0.500000  0.500000  0.000000      1.000000
 
 Following cartesian coordinates:
            Coordinates               Weight
  0.000000  0.000000  0.000000      1.000000
  0.059235  0.000000  0.000000      2.000000
  0.059235  0.059235  0.000000      1.000000
 


--------------------------------------------------------------------------------------------------------




 Dimension of arrays:
   k-points           NKPTS =      3   k-points in BZ     NKDIM =      3   number of bands    NBANDS=    320
   number of dos      NEDOS =    301   number of ions     NIONS =     66
   non local maximal  LDIM  =      5   non local SUM 2l+1 LMDIM =     13
   total plane-waves  NPLWV = 373248
   max r-space proj   IRMAX =      1   max aug-charges    IRDMAX=   5039
   dimension x,y,z NGX =    54 NGY =   54 NGZ =  128
   dimension x,y,z NGXF=   108 NGYF=  108 NGZF=  256
   support grid    NGXF=   108 NGYF=  108 NGZF=  256
   ions per type =               1   1  32  32
   NGX,Y,Z   is equivalent  to a cutoff of  10.64, 10.64,  9.98 a.u.
   NGXF,Y,Z  is equivalent  to a cutoff of  21.27, 21.27, 19.95 a.u.

 SYSTEM =  MgO-rocksalt                            
 POSCAR =   C  O Mg  O                             

 Startparameter for this run:
   NWRITE =      2    write-flag & timer
   PREC   = normal    normal or accurate (medium, high low for compatibility)
   ISTART =      0    job   : 0-new  1-cont  2-samecut
   ICHARG =      2    charge: 1-file 2-atom 10-const
   ISPIN  =      1    spin polarized calculation?
   LNONCOLLINEAR =      F non collinear calculations
   LSORBIT =      F    spin-orbit coupling
   INIWAV =      1    electr: 0-lowe 1-rand  2-diag
   LASPH  =      T    aspherical Exc in radial PAW
 Electronic Relaxation 1
   ENCUT  =  600.0 eV  44.10 Ry    6.64 a.u.  16.86 16.86 42.60*2*pi/ulx,y,z
   ENINI  =  600.0     initial cutoff
   ENAUG  =  758.8 eV  augmentation charge cutoff
   NELM   =    200;   NELMIN=  8; NELMDL= -5     # of ELM steps 
   EDIFF  = 0.1E-05   stopping-criterion for ELM
   LREAL  =      F    real-space projection
   NLSPLINE    = F    spline interpolate recip. space projectors
   LCOMPAT=      F    compatible to vasp.4.4
   GGA_COMPAT  = T    GGA compatible to vasp.4.4-vasp.4.6
   LMAXPAW     = -100 max onsite density
   LMAXMIX     =    2 max onsite mixed and CHGCAR
   VOSKOWN=      0    Vosko Wilk Nusair interpolation
   ROPT   =    0.00000   0.00000   0.00000   0.00000
 Ionic relaxation
   EDIFFG = -.1E-01   stopping-criterion for IOM
   NSW    =      0    number of steps for IOM
   NBLOCK =      1;   KBLOCK =      1    inner block; outer block 
   IBRION =     -1    ionic relax: 0-MD 1-quasi-New 2-CG
   NFREE  =      0    steps in history (QN), initial steepest desc. (CG)
   ISIF   =      2    stress and relaxation
   IWAVPR =     10    prediction:  0-non 1-charg 2-wave 3-comb
   ISYM   =      2    0-nonsym 1-usesym 2-fastsym
   LCORR  =      T    Harris-Foulkes like correction to forces

   POTIM  = 0.5000    time-step for ionic-motion
   TEIN   =    0.0    initial temperature
   TEBEG  =    0.0;   TEEND  =   0.0 temperature during run
   SMASS  =  -3.00    Nose mass-parameter (am)
   estimated Nose-frequenzy (Omega)   =  0.10E-29 period in steps = 0.13E+47 mass=  -0.163E-26a.u.
   SCALEE = 1.0000    scale energy and forces
   NPACO  =    256;   APACO  = 10.0  distance and # of slots for P.C.
   PSTRESS=    0.0 pullay stress

  Mass of Ions in am
   POMASS =  12.01 16.00 24.30 16.00
  Ionic Valenz
   ZVAL   =   4.00  6.00  8.00  6.00
  Atomic Wigner-Seitz radii
   RWIGS  =  -1.00 -1.00 -1.00 -1.00
  virtual crystal weights 
   VCA    =   1.00  1.00  1.00  1.00
   NELECT =     458.0000    total number of electrons
   NUPDOWN=      -1.0000    fix difference up-down

 DOS related values:
   EMIN   =  10.00;   EMAX   =-10.00  energy-range for DOS
   EFERMI =   0.00
   ISMEAR =     0;   SIGMA  =   0.05  broadening in eV -4-tet -1-fermi 0-gaus

 Electronic relaxation 2 (details)
   IALGO  =     58    algorithm
   LDIAG  =      T    sub-space diagonalisation (order eigenvalues)
   LSUBROT=      F    optimize rotation matrix (better conditioning)
   TURBO    =      0    0=normal 1=particle mesh
   IRESTART =      0    0=no restart 2=restart with 2 vectors
   NREBOOT  =      0    no. of reboots
   NMIN     =      0    reboot dimension
   EREF     =   0.00    reference energy to select bands
   IMIX   =      4    mixing-type and parameters
     AMIX     =   0.40;   BMIX     =  1.00
     AMIX_MAG =   1.60;   BMIX_MAG =  1.00
     AMIN     =   0.10
     WC   =   100.;   INIMIX=   1;  MIXPRE=   1;  MAXMIX= -45

 Intra band minimization:
   WEIMIN = 0.0000     energy-eigenvalue tresh-hold
   EBREAK =  0.78E-09  absolut break condition
   DEPER  =   0.30     relativ break condition  

   TIME   =   0.40     timestep for ELM

  volume/ion in A,a.u.               =      23.03       155.40
  Fermi-wavevector in a.u.,A,eV,Ry     =   1.097571  2.074108 16.390423  1.204662
  Thomas-Fermi vector in A             =   2.233933

 Write flags
   LWAVE        =      F    write WAVECAR
   LDOWNSAMPLE  =      F    k-point downsampling of WAVECAR
   LCHARG       =      F    write CHGCAR
   LVTOT        =      F    write LOCPOT, total local potential
   LVHAR        =      F    write LOCPOT, Hartree potential only
   LELF         =      F    write electronic localiz. function (ELF)
   LORBIT       =      0    0 simple, 1 ext, 2 COOP (PROOUT), +10 PAW based schemes


 Dipole corrections
   LMONO  =      F    monopole corrections only (constant potential shift)
   LDIPOL =      T    correct potential (dipole corrections)
   IDIPOL =      3    1-x, 2-y, 3-z, 4-all directions 
   EPSILON=  1.0000000 bulk dielectric constant

 Exchange correlation treatment:
   GGA     =    RE    GGA type
   LEXCH   =    40    internal setting for exchange type
   LIBXC   =     F    Libxc                    
   VOSKOWN =     0    Vosko Wilk Nusair interpolation
   LHFCALC =     F    Hartree Fock is set to
   LHFONE  =     F    Hartree Fock one center treatment
   AEXX    =    0.0000 exact exchange contribution

 vdW DFT:
   LUSE_VDW   =     T    switch on vdW DFT
   Zab_VDW    =-.8491    correlation parameter
   PARAM1     =0.1234
   PARAM2     =1.0000
   PARAM3     =0.0000
   -- rVV10 --
   BPARAM     = 6.3000
   CPARAM     = 0.0093

 Linear response parameters
   LEPSILON=     F    determine dielectric tensor
   LRPA    =     F    only Hartree local field effects (RPA)
   LNABLA  =     F    use nabla operator in PAW spheres
   LVEL    =     F    velocity operator in full k-point grid
   CSHIFT  =0.1000    complex shift for real part using Kramers Kronig
   OMEGAMAX=  -1.0    maximum frequency
   DEG_THRESHOLD= 0.2000000E-02 threshold for treating states as degnerate
   RTIME   =   -0.100 relaxation time in fs
  (WPLASMAI=    0.000 imaginary part of plasma frequency in eV, 0.658/RTIME)
   DFIELD  = 0.0000000 0.0000000 0.0000000 field for delta impulse in time

  Optional k-point grid parameters
   LKPOINTS_OPT  =     F    use optional k-point grid
   KPOINTS_OPT_MODE=     1    mode for optional k-point grid

 Orbital magnetization related:
   ORBITALMAG=     F  switch on orbital magnetization
   LCHIMAG   =     F  perturbation theory with respect to B field
   DQ        =  0.001000  dq finite difference perturbation B field
   LLRAUG    =     F  two centre corrections for induced B field



--------------------------------------------------------------------------------------------------------


 Static calculation
 charge density and potential will be updated during run
 non-spin polarized calculation
 Conjugate gradient for all bands (Freysoldt, et al. PRB 79, 241103 (2009))
 preconditioned conjugated gradient                                        
 perform sub-space diagonalisation
    before iterative eigenvector-optimisation
 modified Broyden-mixing scheme, WC =      100.0
 initial mixing is a Kerker type mixing with AMIX =  0.4000 and BMIX =      1.0000
 Hartree-type preconditioning will be used
 using additional bands           91
 reciprocal scheme for non local part
 use partial core corrections
 no Harris-corrections to forces 
 use gradient corrections 
 use of overlap-Matrix (Vanderbilt PP)
 Gauss-broadening in eV      SIGMA  =   0.05


--------------------------------------------------------------------------------------------------------


  energy-cutoff  :      600.00
  volume of cell :     1519.82
      direct lattice vectors                 reciprocal lattice vectors
     8.440984654  0.000000000  0.000000000     0.118469591  0.000000000  0.000000000
     0.000000000  8.440984654  0.000000000     0.000000000  0.118469591  0.000000000
     0.000000000  0.000000000 21.330738491     0.000000000  0.000000000  0.046880702

  length of vectors
     8.440984654  8.440984654 21.330738491     0.118469591  0.118469591  0.046880702



 k-points in units of 2pi/SCALE and weight: pymatgen v2020.8.13 with grid density = 
   0.00000000  0.00000000  0.00000000       0.250
   0.05923480  0.00000000  0.00000000       0.500
   0.05923480  0.05923480  0.00000000       0.250

 k-points in reciprocal lattice and weights: pymatgen v2020.8.13 with grid density = 
   0.00000000  0.00000000  0.00000000       0.250
   0.50000000  0.00000000  0.00000000       0.500
   0.50000000  0.50000000  0.00000000       0.250

 position of ions in fractional coordinates (direct lattice) 
   0.50000000  0.50000000  0.77016275
   0.50000000  0.50000000  0.82392647
   0.00000000  0.75000000  0.35160527
   0.25000000  0.00000000  0.35160527
   0.00000000  0.00000000  0.45053509
   0.25000000  0.75000000  0.45053509
   0.00000000  0.74993927  0.55008324
   0.25006073  0.00000000  0.55008324
   0.00000000  0.00000000  0.64874531
   0.24985833  0.75014167  0.64856955
   0.00000000  0.25000000  0.35160527
   0.25000000  0.50000000  0.35160527
   0.00000000  0.50000000  0.45053509
   0.25000000  0.25000000  0.45053509
   0.00000000  0.25006073  0.55008324
   0.25037838  0.50000000  0.55021952
   0.00000000  0.50000000  0.64861528
   0.24985833  0.24985833  0.64856955
   0.50000000  0.75000000  0.35160527
   0.75000000  0.00000000  0.35160527
   0.50000000  0.00000000  0.45053509
   0.75000000  0.75000000  0.45053509
   0.50000000  0.74962162  0.55021952
   0.74993927  0.00000000  0.55008324
   0.50000000  0.00000000  0.64861528
   0.75014167  0.75014167  0.64856955
   0.50000000  0.25000000  0.35160527
   0.75000000  0.50000000  0.35160527
   0.50000000  0.50000000  0.45053509
   0.75000000  0.25000000  0.45053509
   0.50000000  0.25037838  0.55021952
   0.74962162  0.50000000  0.55021952
   0.50000000  0.50000000  0.65061696
   0.75014167  0.24985833  0.64856955
   0.00000000  0.75000000  0.45053509
   0.25000000  0.00000000  0.45053509
   0.00000000  0.00000000  0.35160527
   0.25000000  0.75000000  0.35160527
   0.00000000  0.75021853  0.65097926
   0.24978147  0.00000000  0.65097926
   0.00000000  0.00000000  0.54980989
   0.24994577  0.75005423  0.54985911
   0.00000000  0.25000000  0.45053509
   0.25000000  0.50000000  0.45053509
   0.00000000  0.50000000  0.35160527
   0.25000000  0.25000000  0.35160527
   0.00000000  0.24978147  0.65097926
   0.24882271  0.50000000  0.65088287
   0.00000000  0.50000000  0.54976267
   0.24994577  0.24994577  0.54985911
   0.50000000  0.75000000  0.45053509
   0.75000000  0.00000000  0.45053509
   0.50000000  0.00000000  0.35160527
   0.75000000  0.75000000  0.35160527
   0.50000000  0.75117729  0.65088287
   0.75021853  0.00000000  0.65097926
   0.50000000  0.00000000  0.54976267
   0.75005423  0.75005423  0.54985911
   0.50000000  0.25000000  0.45053509
   0.75000000  0.50000000  0.45053509
   0.50000000  0.50000000  0.35160527
   0.75000000  0.25000000  0.35160527
   0.50000000  0.24882271  0.65088287
   0.75117729  0.50000000  0.65088287
   0.50000000  0.50000000  0.55023136
   0.75005423  0.24994577  0.54985911

 position of ions in cartesian coordinates  (Angst):
   4.22049233  4.22049233 16.42814023
   4.22049233  4.22049233 17.57496005
   0.00000000  6.33073849  7.50000000
   2.11024616  0.00000000  7.50000000
   0.00000000  0.00000000  9.61024616
   2.11024616  6.33073849  9.61024616
   0.00000000  6.33022585 11.73368172
   2.11075880  0.00000000 11.73368172
   0.00000000  0.00000000 13.83821654
   2.10905031  6.33193435 13.83446740
   0.00000000  2.11024616  7.50000000
   2.11024616  4.22049233  7.50000000
   0.00000000  4.22049233  9.61024616
   2.11024616  2.11024616  9.61024616
   0.00000000  2.11075880 11.73368172
   2.11344006  4.22049233 11.73658877
   0.00000000  4.22049233 13.83544293
   2.10905031  2.10905031 13.83446740
   4.22049233  6.33073849  7.50000000
   6.33073849  0.00000000  7.50000000
   4.22049233  0.00000000  9.61024616
   6.33073849  6.33073849  9.61024616
   4.22049233  6.32754460 11.73658877
   6.33022585  0.00000000 11.73368172
   4.22049233  0.00000000 13.83544293
   6.33193435  6.33193435 13.83446740
   4.22049233  2.11024616  7.50000000
   6.33073849  4.22049233  7.50000000
   4.22049233  4.22049233  9.61024616
   6.33073849  2.11024616  9.61024616
   4.22049233  2.11344006 11.73658877
   6.32754460  4.22049233 11.73658877
   4.22049233  4.22049233 13.87814023
   6.33193435  2.10905031 13.83446740
   0.00000000  6.33073849  9.61024616
   2.11024616  0.00000000  9.61024616
   0.00000000  0.00000000  7.50000000
   2.11024616  6.33073849  7.50000000
   0.00000000  6.33258312 13.88586825
   2.10840153  0.00000000 13.88586825
   0.00000000  0.00000000 11.72785099
   2.10978841  6.33119624 11.72890095
   0.00000000  2.11024616  9.61024616
   2.11024616  4.22049233  9.61024616
   0.00000000  4.22049233  7.50000000
   2.11024616  2.11024616  7.50000000
   0.00000000  2.10840153 13.88586825
   2.10030867  4.22049233 13.88381232
   0.00000000  4.22049233 11.72684365
   2.10978841  2.10978841 11.72890095
   4.22049233  6.33073849  9.61024616
   6.33073849  0.00000000  9.61024616
   4.22049233  0.00000000  7.50000000
   6.33073849  6.33073849  7.50000000
   4.22049233  6.34067598 13.88381232
   6.33258312  0.00000000 13.88586825
   4.22049233  0.00000000 11.72684365
   6.33119624  6.33119624 11.72890095
   4.22049233  2.11024616  9.61024616
   6.33073849  4.22049233  9.61024616
   4.22049233  4.22049233  7.50000000
   6.33073849  2.11024616  7.50000000
   4.22049233  2.10030867 13.88381232
   6.34067598  4.22049233 13.88381232
   4.22049233  4.22049233 11.73684118
   6.33119624  2.10978841 11.72890095



--------------------------------------------------------------------------------------------------------


 k-point   1 :   0.0000 0.0000 0.0000  plane waves:   50745
 k-point   2 :   0.5000 0.0000 0.0000  plane waves:   50798
 k-point   3 :   0.5000 0.5000 0.0000  plane waves:   50752

 maximum and minimum number of plane-waves per node :     12720    12632

 maximum number of plane-waves:     50798
 maximum index in each direction: 
   IXMAX=   16   IYMAX=   16   IZMAX=   42
   IXMIN=  -17   IYMIN=  -17   IZMIN=  -42


 parallel 3D FFT for wavefunctions:
    minimum data exchange during FFTs selected (reduces bandwidth)
 parallel 3D FFT for charge:
    minimum data exchange during FFTs selected (reduces bandwidth)


 total amount of memory used by VASP MPI-rank0    78528. kBytes
=======================================================================

   base      :      30000. kBytes
   nonl-proj :      29343. kBytes
   fftplans  :       3857. kBytes
   grid      :       5885. kBytes
   one-center:        137. kBytes
   wavefun   :       9306. kBytes

     INWAV:  cpu time      0.0002: real time      0.0003
 Broyden mixing: mesh for mixing (old mesh)
   NGX = 33   NGY = 33   NGZ = 85
  (NGX  =108   NGY  =108   NGZ  =256)
  gives a total of  92565 points

 initial charge density was supplied:
 charge density of overlapping atoms calculated
 number of electron     458.0000000 magnetization 
 keeping initial charge density in first step


--------------------------------------------------------------------------------------------------------


 Maximum index for augmentation-charges          334 (set IRDMAX)


--------------------------------------------------------------------------------------------------------


 First call to EWALD:  gamma=   0.154
 Maximum number of real-space cells 4x 4x 2
 Maximum number of reciprocal cells 2x 2x 5

    FEWALD:  cpu time      0.0075: real time      0.0075


--------------------------------------- Iteration      1(   1)  ---------------------------------------


vdW kernel read from vdw_kernel.bindat
  0.0000  0.2424  0.5071  0.7962  1.1119  1.4567  1.8333  2.2446  2.6937  3.1842
  3.7199  4.3049  4.9438  5.6415  6.4036  7.2358  8.1446  9.1372 10.2212 11.4050
 12.6979 14.1099 15.6519 17.3360 19.1751 21.1837 23.3773 25.7729 28.3892 31.2465
 34.3669 37.7748 41.4965 45.5611 50.0000

    POTLOK:  cpu time      0.9658: real time      0.9690
    SETDIJ:  cpu time      0.1378: real time      0.1378
    TRIAL :  cpu time      5.4285: real time      5.5196
    CORREC:  cpu time      0.0014: real time      0.0014
    --------------------------------------------
      LOOP:  cpu time      6.5352: real time      6.6852

 eigenvalue-minimisations  :  2304
 total energy-change (2. order) : 0.4310594E+04  (-0.3068991E+05)
 number of electron     458.0000000 magnetization 
 augmentation part      458.0000000 magnetization 

 DIPCOR: dipole corrections for dipol
 direction  3 min pos     1,
 dipolmoment           0.000000      0.000000     -0.000330 electrons x Angstroem
 Tr[quadrupol]     -6318.707831

 energy correction for charged system         0.000000 eV
 dipol+quadrupol energy correction           -0.000000 eV
 added-field ion interaction          0.002714 eV  (added to PSCEN)


 Free energy of the ion-electron system (eV)
  ---------------------------------------------------
  alpha Z        PSCENC =       907.96681765
  Ewald energy   TEWEN  =    136893.95856843
  -Hartree energ DENC   =   -172993.43103778
  -exchange      EXHF   =         0.00000000
  -V(xc)+E(xc)   XCENC  =      1735.50164740
  PAW double counting   =     32391.11887895   -36187.02304673
  entropy T*S    EENTRO =        -0.02544566
  eigenvalues    EBANDS =     -6985.11353651
  atomic energy  EATOM  =     48547.64153090
  ---------------------------------------------------
  free energy    TOTEN  =      4310.59437665 eV

  energy without entropy =     4310.61982231  energy(sigma->0) =     4310.60709948


--------------------------------------------------------------------------------------------------------




--------------------------------------- Iteration      1(   2)  ---------------------------------------


    TRIAL :  cpu time      2.2468: real time      2.2472
    CORREC:  cpu time      0.0003: real time      0.0003
    --------------------------------------------
      LOOP:  cpu time      2.2533: real time      2.2627

 eigenvalue-minimisations  :  2304
 total energy-change (2. order) :-0.4302752E+04  (-0.4227933E+04)
 number of electron     458.0000000 magnetization 
 augmentation part      458.0000000 magnetization 

 DIPCOR: dipole corrections for dipol
 direction  3 min pos     1,
 dipolmoment           0.000000      0.000000     -0.000330 electrons x Angstroem
 Tr[quadrupol]     -6318.707831

 energy correction for charged system         0.000000 eV
 dipol+quadrupol energy correction           -0.000000 eV
 added-field ion interaction          0.002714 eV  (added to PSCEN)


 Free energy of the ion-electron system (eV)
  ---------------------------------------------------
  alpha Z        PSCENC =       907.96681765
  Ewald energy   TEWEN  =    136893.95856843
  -Hartree energ DENC   =   -172993.43103778
  -exchange      EXHF   =         0.00000000
  -V(xc)+E(xc)   XCENC  =      1735.50164740
  PAW double counting   =     32391.11887895   -36187.02304673
  entropy T*S    EENTRO =        -0.00000000
  eigenvalues    EBANDS =    -11287.89072298
  atomic energy  EATOM  =     48547.64153090
  ---------------------------------------------------
  free energy    TOTEN  =         7.84263585 eV

  energy without entropy =        7.84263585  energy(sigma->0) =        7.84263585


--------------------------------------------------------------------------------------------------------




--------------------------------------- Iteration      1(   3)  ---------------------------------------


    TRIAL :  cpu time      2.3568: real time      2.3572
    CORREC:  cpu time      0.0003: real time      0.0003
    --------------------------------------------
      LOOP:  cpu time      2.3615: real time      2.3717

 eigenvalue-minimisations  :  2304
 total energy-change (2. order) :-0.3136640E+03  (-0.3117099E+03)
 number of electron     458.0000000 magnetization 
 augmentation part      458.0000000 magnetization 

 DIPCOR: dipole corrections for dipol
 direction  3 min pos     1,
 dipolmoment           0.000000      0.000000     -0.000330 electrons x Angstroem
 Tr[quadrupol]     -6318.707831

 energy correction for charged system         0.000000 eV
 dipol+quadrupol energy correction           -0.000000 eV
 added-field ion interaction          0.002714 eV  (added to PSCEN)


 Free energy of the ion-electron system (eV)
  ---------------------------------------------------
  alpha Z        PSCENC =       907.96681765
  Ewald energy   TEWEN  =    136893.95856843
  -Hartree energ DENC   =   -172993.43103778
  -exchange      EXHF   =         0.00000000
  -V(xc)+E(xc)   XCENC  =      1735.50164740
  PAW double counting   =     32391.11887895   -36187.02304673
  entropy T*S    EENTRO =        -0.00000000
  eigenvalues    EBANDS =    -11601.55470691
  atomic energy  EATOM  =     48547.64153090
  ---------------------------------------------------
  free energy    TOTEN  =      -305.82134808 eV

  energy without entropy =     -305.82134808  energy(sigma->0) =     -305.82134808


--------------------------------------------------------------------------------------------------------




--------------------------------------- Iteration      1(   4)  ---------------------------------------


    TRIAL :  cpu time      2.4981: real time      2.4992
    CORREC:  cpu time      0.0003: real time      0.0003
    --------------------------------------------
      LOOP:  cpu time      2.5029: real time      2.5136

 eigenvalue-minimisations  :  2432
 total energy-change (2. order) :-0.5891488E+01  (-0.5885046E+01)
 number of electron     458.0000000 magnetization 
 augmentation part      458.0000000 magnetization 

 DIPCOR: dipole corrections for dipol
 direction  3 min pos     1,
 dipolmoment           0.000000      0.000000     -0.000330 electrons x Angstroem
 Tr[quadrupol]     -6318.707831

 energy correction for charged system         0.000000 eV
 dipol+quadrupol energy correction           -0.000000 eV
 added-field ion interaction          0.002714 eV  (added to PSCEN)


 Free energy of the ion-electron system (eV)
  ---------------------------------------------------
  alpha Z        PSCENC =       907.96681765
  Ewald energy   TEWEN  =    136893.95856843
  -Hartree energ DENC   =   -172993.43103778
  -exchange      EXHF   =         0.00000000
  -V(xc)+E(xc)   XCENC  =      1735.50164740
  PAW double counting   =     32391.11887895   -36187.02304673
  entropy T*S    EENTRO =        -0.00000000
  eigenvalues    EBANDS =    -11607.44619501
  atomic energy  EATOM  =     48547.64153090
  ---------------------------------------------------
  free energy    TOTEN  =      -311.71283618 eV

  energy without entropy =     -311.71283618  energy(sigma->0) =     -311.71283618


--------------------------------------------------------------------------------------------------------




--------------------------------------- Iteration      1(   5)  ---------------------------------------


    TRIAL :  cpu time      2.0059: real time      2.0064
    CORREC:  cpu time      0.0003: real time      0.0003
    CHARGE:  cpu time      0.0773: real time      0.0778
    --------------------------------------------
      LOOP:  cpu time      2.0898: real time      2.0986

 eigenvalue-minimisations  :  2176
 total energy-change (2. order) :-0.6963324E-01  (-0.6963119E-01)
 number of electron     457.9999376 magnetization 
 augmentation part      160.5742458 magnetization 

 DIPCOR: dipole corrections for dipol
 direction  3 min pos     1,
 dipolmoment           0.000000      0.000000     -0.000330 electrons x Angstroem
 Tr[quadrupol]     -6318.707831

 energy correction for charged system         0.000000 eV
 dipol+quadrupol energy correction           -0.000000 eV
 added-field ion interaction          0.002714 eV  (added to PSCEN)


 Free energy of the ion-electron system (eV)
  ---------------------------------------------------
  alpha Z        PSCENC =       907.96681765
  Ewald energy   TEWEN  =    136893.95856843
  -Hartree energ DENC   =   -172993.43103778
  -exchange      EXHF   =         0.00000000
  -V(xc)+E(xc)   XCENC  =      1735.50164740
  PAW double counting   =     32391.11887895   -36187.02304673
  entropy T*S    EENTRO =        -0.00000000
  eigenvalues    EBANDS =    -11607.51582825
  atomic energy  EATOM  =     48547.64153090
  ---------------------------------------------------
  free energy    TOTEN  =      -311.78246942 eV

  energy without entropy =     -311.78246942  energy(sigma->0) =     -311.78246942


--------------------------------------------------------------------------------------------------------




--------------------------------------- Iteration      1(   6)  ---------------------------------------


    POTLOK:  cpu time      0.3203: real time      0.3203
    SETDIJ:  cpu time      0.1965: real time      0.1965
    TRIAL :  cpu time      0.6746: real time      0.6752
    CORREC:  cpu time      0.8239: real time      0.8241
    CHARGE:  cpu time      0.0544: real time      0.0544
    --------------------------------------------
      LOOP:  cpu time      2.0836: real time      2.0846

 eigenvalue-minimisations  :     0
 total energy-change (2. order) : 0.2025988E+03  (-0.1135321E+03)
 number of electron     457.9999261 magnetization 
 augmentation part      157.2114646 magnetization 

 DIPCOR: dipole corrections for dipol
 direction  3 min pos     1,
 dipolmoment           0.000000      0.000000      0.219548 electrons x Angstroem
 Tr[quadrupol]     -6352.184293

 energy correction for charged system         0.000000 eV
 dipol+quadrupol energy correction           -0.002870 eV
 added-field ion interaction         -1.806206 eV  (added to PSCEN)


 Free energy of the ion-electron system (eV)
  ---------------------------------------------------
  alpha Z        PSCENC =       903.75580034
  Ewald energy   TEWEN  =    136893.95856843
  -Hartree energ DENC   =   -177007.93246988
  -exchange      EXHF   =         0.00000000
  -V(xc)+E(xc)   XCENC  =      1872.29110805
  PAW double counting   =     37225.12279378   -40993.10271795
  entropy T*S    EENTRO =        -0.00000000
  eigenvalues    EBANDS =     -7550.91832520
  atomic energy  EATOM  =     48547.64153090
  ---------------------------------------------------
  free energy    TOTEN  =      -109.18371152 eV

  energy without entropy =     -109.18371152  energy(sigma->0) =     -109.18371152


--------------------------------------------------------------------------------------------------------




--------------------------------------- Iteration      1(   7)  ---------------------------------------


    POTLOK:  cpu time      0.3144: real time      0.3145
    SETDIJ:  cpu time      0.1868: real time      0.1869
    TRIAL :  cpu time      0.6029: real time      0.6029
    CORREC:  cpu time      0.8156: real time      0.8158
    CHARGE:  cpu time      0.0547: real time      0.0547
    --------------------------------------------
      LOOP:  cpu time      1.9801: real time      1.9891

 eigenvalue-minimisations  :     0
 total energy-change (2. order) :-0.1141052E+03  (-0.7953429E+01)
 number of electron     457.9999249 magnetization 
 augmentation part      155.2979099 magnetization 

 DIPCOR: dipole corrections for dipol
 direction  3 min pos     1,
 dipolmoment           0.000000      0.000000      0.185591 electrons x Angstroem
 Tr[quadrupol]     -6359.613201

 energy correction for charged system         0.000000 eV
 dipol+quadrupol energy correction           -0.002051 eV
 added-field ion interaction         -1.526843 eV  (added to PSCEN)


 Free energy of the ion-electron system (eV)
  ---------------------------------------------------
  alpha Z        PSCENC =       905.84710043
  Ewald energy   TEWEN  =    136893.95856843
  -Hartree energ DENC   =   -175001.02851393
  -exchange      EXHF   =         0.00000000
  -V(xc)+E(xc)   XCENC  =      1796.34711147
  PAW double counting   =     36007.53939686   -39839.18654228
  entropy T*S    EENTRO =        -0.00000000
  eigenvalues    EBANDS =     -9534.40752020
  atomic energy  EATOM  =     48547.64153090
  ---------------------------------------------------
  free energy    TOTEN  =      -223.28886832 eV

  energy without entropy =     -223.28886832  energy(sigma->0) =     -223.28886832


--------------------------------------------------------------------------------------------------------




--------------------------------------- Iteration      1(   8)  ---------------------------------------


    POTLOK:  cpu time      0.3147: real time      0.3147
    SETDIJ:  cpu time      0.1954: real time      0.1957
    TRIAL :  cpu time      0.6034: real time      0.6034
    CORREC:  cpu time      0.8037: real time      0.8039
    CHARGE:  cpu time      0.0548: real time      0.0548
    --------------------------------------------
      LOOP:  cpu time      1.9865: real time      1.9873

 eigenvalue-minimisations  :     0
 total energy-change (2. order) :-0.7981809E+01  (-0.4951197E+01)
 number of electron     457.9999231 magnetization 
 augmentation part      155.4291017 magnetization 

 DIPCOR: dipole corrections for dipol
 direction  3 min pos     1,
 dipolmoment           0.000000      0.000000      0.100465 electrons x Angstroem
 Tr[quadrupol]     -6358.163626

 energy correction for charged system         0.000000 eV
 dipol+quadrupol energy correction           -0.000601 eV
 added-field ion interaction         -0.826521 eV  (added to PSCEN)


 Free energy of the ion-electron system (eV)
  ---------------------------------------------------
  alpha Z        PSCENC =       906.66531675
  Ewald energy   TEWEN  =    136893.95856843
  -Hartree energ DENC   =   -174951.81355782
  -exchange      EXHF   =         0.00000000
  -V(xc)+E(xc)   XCENC  =      1786.87463472
  PAW double counting   =     35910.36270020   -39673.34204528
  entropy T*S    EENTRO =        -0.00000000
  eigenvalues    EBANDS =     -9651.61782492
  atomic energy  EATOM  =     48547.64153090
  ---------------------------------------------------
  free energy    TOTEN  =      -231.27067701 eV

  energy without entropy =     -231.27067701  energy(sigma->0) =     -231.27067701


--------------------------------------------------------------------------------------------------------




--------------------------------------- Iteration      1(   9)  ---------------------------------------


    POTLOK:  cpu time      0.3189: real time      0.3189
    SETDIJ:  cpu time      0.1844: real time      0.1847
    TRIAL :  cpu time      0.6022: real time      0.6022
    CORREC:  cpu time      0.8023: real time      0.8026
    CHARGE:  cpu time      0.0555: real time      0.0555
    --------------------------------------------
      LOOP:  cpu time      1.9683: real time      1.9780

 eigenvalue-minimisations  :     0
 total energy-change (2. order) :-0.4810482E+01  (-0.1829031E+01)
 number of electron     457.9999231 magnetization 
 augmentation part      155.3965165 magnetization 

 DIPCOR: dipole corrections for dipol
 direction  3 min pos     1,
 dipolmoment           0.000000      0.000000      0.098412 electrons x Angstroem
 Tr[quadrupol]     -6348.877149

 energy correction for charged system         0.000000 eV
 dipol+quadrupol energy correction           -0.000577 eV
 added-field ion interaction         -0.809630 eV  (added to PSCEN)


 Free energy of the ion-electron system (eV)
  ---------------------------------------------------
  alpha Z        PSCENC =       907.40073587
  Ewald energy   TEWEN  =    136893.95856843
  -Hartree energ DENC   =   -174791.41944490
  -exchange      EXHF   =         0.00000000
  -V(xc)+E(xc)   XCENC  =      1785.97196529
  PAW double counting   =     35820.24860363   -39623.18455266
  entropy T*S    EENTRO =        -0.00000000
  eigenvalues    EBANDS =     -9776.69856510
  atomic energy  EATOM  =     48547.64153090
  ---------------------------------------------------
  free energy    TOTEN  =      -236.08115855 eV

  energy without entropy =     -236.08115855  energy(sigma->0) =     -236.08115855


--------------------------------------------------------------------------------------------------------




--------------------------------------- Iteration      1(  10)  ---------------------------------------


    POTLOK:  cpu time      0.3123: real time      0.3124
    SETDIJ:  cpu time      0.1992: real time      0.1994
    TRIAL :  cpu time      0.6038: real time      0.6038
    CORREC:  cpu time      0.8052: real time      0.8054
    CHARGE:  cpu time      0.0539: real time      0.0539
    --------------------------------------------
      LOOP:  cpu time      1.9892: real time      1.9897

 eigenvalue-minimisations  :     0
 total energy-change (2. order) :-0.1862173E+01  (-0.6463448E+00)
 number of electron     457.9999239 magnetization 
 augmentation part      155.3463717 magnetization 

 DIPCOR: dipole corrections for dipol
 direction  3 min pos     1,
 dipolmoment           0.000000      0.000000      0.136798 electrons x Angstroem
 Tr[quadrupol]     -6348.406755

 energy correction for charged system         0.000000 eV
 dipol+quadrupol energy correction           -0.001114 eV
 added-field ion interaction         -1.125424 eV  (added to PSCEN)


 Free energy of the ion-electron system (eV)
  ---------------------------------------------------
  alpha Z        PSCENC =       907.21843502
  Ewald energy   TEWEN  =    136893.95856843
  -Hartree energ DENC   =   -174583.04550088
  -exchange      EXHF   =         0.00000000
  -V(xc)+E(xc)   XCENC  =      1783.80265849
  PAW double counting   =     35706.31848346   -39514.29134541
  entropy T*S    EENTRO =        -0.00000000
  eigenvalues    EBANDS =     -9979.54616175
  atomic energy  EATOM  =     48547.64153090
  ---------------------------------------------------
  free energy    TOTEN  =      -237.94333173 eV

  energy without entropy =     -237.94333173  energy(sigma->0) =     -237.94333173


--------------------------------------------------------------------------------------------------------




--------------------------------------- Iteration      1(  11)  ---------------------------------------


    POTLOK:  cpu time      0.3126: real time      0.3126
    SETDIJ:  cpu time      0.1868: real time      0.1871
    TRIAL :  cpu time      0.6021: real time      0.6022
    CORREC:  cpu time      0.8001: real time      0.8002
    CHARGE:  cpu time      0.0541: real time      0.0541
    --------------------------------------------
      LOOP:  cpu time      1.9618: real time      1.9709

 eigenvalue-minimisations  :     0
 total energy-change (2. order) :-0.6478679E+00  (-0.2539058E+00)
 number of electron     457.9999244 magnetization 
 augmentation part      155.4699035 magnetization 

 DIPCOR: dipole corrections for dipol
 direction  3 min pos     1,
 dipolmoment           0.000000      0.000000      0.137877 electrons x Angstroem
 Tr[quadrupol]     -6349.577384

 energy correction for charged system         0.000000 eV
 dipol+quadrupol energy correction           -0.001132 eV
 added-field ion interaction         -1.134299 eV  (added to PSCEN)


 Free energy of the ion-electron system (eV)
  ---------------------------------------------------
  alpha Z        PSCENC =       906.89798340
  Ewald energy   TEWEN  =    136893.95856843
  -Hartree energ DENC   =   -174517.71422734
  -exchange      EXHF   =         0.00000000
  -V(xc)+E(xc)   XCENC  =      1782.79315137
  PAW double counting   =     35647.40057473   -39445.68329113
  entropy T*S    EENTRO =        -0.00000000
  eigenvalues    EBANDS =    -10053.88548998
  atomic energy  EATOM  =     48547.64153090
  ---------------------------------------------------
  free energy    TOTEN  =      -238.59119962 eV

  energy without entropy =     -238.59119962  energy(sigma->0) =     -238.59119962


--------------------------------------------------------------------------------------------------------




--------------------------------------- Iteration      1(  12)  ---------------------------------------


    POTLOK:  cpu time      0.3126: real time      0.3126
    SETDIJ:  cpu time      0.1985: real time      0.1985
    TRIAL :  cpu time      0.6023: real time      0.6026
    CORREC:  cpu time      0.8011: real time      0.8012
    CHARGE:  cpu time      0.0543: real time      0.0543
    --------------------------------------------
      LOOP:  cpu time      1.9734: real time      1.9839

 eigenvalue-minimisations  :     0
 total energy-change (2. order) :-0.2538554E+00  (-0.9772342E-01)
 number of electron     457.9999245 magnetization 
 augmentation part      155.5984262 magnetization 

 DIPCOR: dipole corrections for dipol
 direction  3 min pos     1,
 dipolmoment           0.000000      0.000000      0.132916 electrons x Angstroem
 Tr[quadrupol]     -6350.570237

 energy correction for charged system         0.000000 eV
 dipol+quadrupol energy correction           -0.001052 eV
 added-field ion interaction         -1.093485 eV  (added to PSCEN)


 Free energy of the ion-electron system (eV)
  ---------------------------------------------------
  alpha Z        PSCENC =       906.83129941
  Ewald energy   TEWEN  =    136893.95856843
  -Hartree energ DENC   =   -174554.95028434
  -exchange      EXHF   =         0.00000000
  -V(xc)+E(xc)   XCENC  =      1783.26249143
  PAW double counting   =     35634.87936048   -39431.97164114
  entropy T*S    EENTRO =        -0.00000000
  eigenvalues    EBANDS =    -10018.49638015
  atomic energy  EATOM  =     48547.64153090
  ---------------------------------------------------
  free energy    TOTEN  =      -238.84505498 eV

  energy without entropy =     -238.84505498  energy(sigma->0) =     -238.84505498


--------------------------------------------------------------------------------------------------------




--------------------------------------- Iteration      1(  13)  ---------------------------------------


    POTLOK:  cpu time      0.3143: real time      0.3143
    SETDIJ:  cpu time      0.1968: real time      0.1968
    TRIAL :  cpu time      0.6018: real time      0.6022
    CORREC:  cpu time      0.8022: real time      0.8024
    CHARGE:  cpu time      0.0540: real time      0.0540
    --------------------------------------------
      LOOP:  cpu time      1.9751: real time      1.9840

 eigenvalue-minimisations  :     0
 total energy-change (2. order) :-0.9772541E-01  (-0.4859822E-01)
 number of electron     457.9999244 magnetization 
 augmentation part      155.6418426 magnetization 

 DIPCOR: dipole corrections for dipol
 direction  3 min pos     1,
 dipolmoment           0.000000      0.000000      0.131170 electrons x Angstroem
 Tr[quadrupol]     -6351.126065

 energy correction for charged system         0.000000 eV
 dipol+quadrupol energy correction           -0.001024 eV
 added-field ion interaction         -1.079125 eV  (added to PSCEN)


 Free energy of the ion-electron system (eV)
  ---------------------------------------------------
  alpha Z        PSCENC =       906.86964136
  Ewald energy   TEWEN  =    136893.95856843
  -Hartree energ DENC   =   -174595.87661659
  -exchange      EXHF   =         0.00000000
  -V(xc)+E(xc)   XCENC  =      1783.70502282
  PAW double counting   =     35633.91540751   -39434.87692983
  entropy T*S    EENTRO =        -0.00000000
  eigenvalues    EBANDS =     -9974.27940500
  atomic energy  EATOM  =     48547.64153090
  ---------------------------------------------------
  free energy    TOTEN  =      -238.94278039 eV

  energy without entropy =     -238.94278039  energy(sigma->0) =     -238.94278039


--------------------------------------------------------------------------------------------------------




--------------------------------------- Iteration      1(  14)  ---------------------------------------


    POTLOK:  cpu time      0.3136: real time      0.3136
    SETDIJ:  cpu time      0.1927: real time      0.1927
    TRIAL :  cpu time      0.6016: real time      0.6020
    CORREC:  cpu time      0.8020: real time      0.8022
    CHARGE:  cpu time      0.0555: real time      0.0555
    --------------------------------------------
      LOOP:  cpu time      1.9708: real time      1.9801

 eigenvalue-minimisations  :     0
 total energy-change (2. order) :-0.4865536E-01  (-0.2312268E-01)
 number of electron     457.9999244 magnetization 
 augmentation part      155.6176594 magnetization 

 DIPCOR: dipole corrections for dipol
 direction  3 min pos     1,
 dipolmoment           0.000000      0.000000      0.132563 electrons x Angstroem
 Tr[quadrupol]     -6351.522160

 energy correction for charged system         0.000000 eV
 dipol+quadrupol energy correction           -0.001046 eV
 added-field ion interaction         -1.090586 eV  (added to PSCEN)


 Free energy of the ion-electron system (eV)
  ---------------------------------------------------
  alpha Z        PSCENC =       906.88574024
  Ewald energy   TEWEN  =    136893.95856843
  -Hartree energ DENC   =   -174615.30341246
  -exchange      EXHF   =         0.00000000
  -V(xc)+E(xc)   XCENC  =      1783.73620548
  PAW double counting   =     35633.05607198   -39436.03964707
  entropy T*S    EENTRO =        -0.00000000
  eigenvalues    EBANDS =     -9952.92649325
  atomic energy  EATOM  =     48547.64153090
  ---------------------------------------------------
  free energy    TOTEN  =      -238.99143575 eV

  energy without entropy =     -238.99143575  energy(sigma->0) =     -238.99143575


--------------------------------------------------------------------------------------------------------




--------------------------------------- Iteration      1(  15)  ---------------------------------------


[...]
    269       6.6230      0.00000
    270       6.6230      0.00000
    271       6.6851      0.00000
    272       6.7977      0.00000
    273       7.0910      0.00000
    274       7.0910      0.00000
    275       7.3997      0.00000
    276       7.6449      0.00000
    277       7.7449      0.00000
    278       7.7449      0.00000
    279       7.7474      0.00000
    280       8.1363      0.00000
    281       8.1375      0.00000
    282       8.1407      0.00000
    283       8.1439      0.00000
    284       8.1472      0.00000
    285       8.1563      0.00000
    286       8.1664      0.00000
    287       8.1680      0.00000
    288       8.2610      0.00000
    289       8.3100      0.00000
    290       8.3251      0.00000
    291       8.3835      0.00000
    292       8.3972      0.00000
    293       8.4557      0.00000
    294       8.5243      0.00000
    295       8.5450      0.00000
    296       8.5952      0.00000
    297       8.5959      0.00000
    298       8.6038      0.00000
    299       8.6200      0.00000
    300       8.6940      0.00000
    301       8.8975      0.00000
    302       8.9198      0.00000
    303       8.9853      0.00000
    304       9.0069      0.00000
    305       9.3058      0.00000
    306       9.3905      0.00000
    307       9.4673      0.00000
    308       9.4874      0.00000
    309       9.5333      0.00000
    310       9.6609      0.00000
    311       9.6734      0.00000
    312       9.7021      0.00000
    313       9.7482      0.00000
    314       9.8256      0.00000
    315       9.8896      0.00000
    316       9.8983      0.00000
    317      10.1914      0.00000
    318      10.3062      0.00000
    319      10.4443      0.00000
    320      10.4715      0.00000


--------------------------------------------------------------------------------------------------------


 soft charge-density along one line, spin component           1
         0         1         2         3         4         5         6         7         8         9
 total charge-density along one line

 pseudopotential strength for first ion, spin component:           1
 10.256  13.638   0.000   0.022   0.000  -0.000  -0.063  -0.000
 13.638  18.133   0.000   0.028   0.000  -0.000  -0.082  -0.000
  0.000   0.000  -4.346  -0.000  -0.000   8.550   0.000   0.000
  0.022   0.028  -0.000  -4.335  -0.000   0.000   8.489   0.000
  0.000   0.000  -0.000  -0.000  -4.346   0.000   0.000   8.550
 -0.000  -0.000   8.550   0.000   0.000 -18.956  -0.000  -0.000
 -0.063  -0.082   0.000   8.489   0.000  -0.000 -18.762  -0.000
 -0.000  -0.000   0.000   0.000   8.550  -0.000  -0.000 -18.956
 total augmentation occupancy for first ion, spin component:           1
  7.040  -3.189   0.000   2.087   0.000   0.000   0.375   0.000
 -3.189   1.865   0.000  -1.601   0.000   0.000  -0.226   0.000
  0.000   0.000   0.826   0.000   0.000   0.058   0.000   0.000
  2.087  -1.601   0.000   2.229   0.000   0.000   0.206  -0.000
  0.000   0.000   0.000   0.000   0.826   0.000   0.000   0.058
  0.000   0.000   0.058   0.000   0.000   0.004   0.000   0.000
  0.375  -0.226   0.000   0.206   0.000   0.000   0.028   0.000
  0.000   0.000   0.000  -0.000   0.058   0.000   0.000   0.004


------------------------ aborting loop because EDIFF is reached ----------------------------------------


    FORLOC:  cpu time      0.0038: real time      0.0038
    FORNL :  cpu time      0.4184: real time      0.4188
    STRESS:  cpu time      1.5945: real time      1.5952
    FORCOR:  cpu time      0.3058: real time      0.3058
    OFIELD:  cpu time      0.0001: real time      0.0001

  FORCE on cell =-STRESS in cart. coord.  units (eV):
  Direction    XX          YY          ZZ          XY          YZ          ZX
  --------------------------------------------------------------------------------------
  Alpha Z   907.96410   907.96410   907.96410
  Ewald  157396.18113157396.18113************     0.00000     0.00000    -0.00000
  Hartree167778.14913167778.14913************    -0.00000    -0.00000    -0.00000
  E(xc)   -2568.23510 -2568.23510 -2568.92065    -0.00000     0.00000    -0.00000
  Local  ************************334744.86925    -0.00000     0.00000    -0.00000
  n-local -2831.67449 -2832.45583 -2862.05635    -0.00000     0.00000     0.00000
  augment  1084.10445  1084.10445  1074.52617     0.00000     0.00000    -0.00000
  Kinetic  7519.02191  7521.49727  7536.17048    -0.00000    -0.00001    -0.00000
  Fock        0.00000     0.00000     0.00000     0.00000     0.00000     0.00000
  -------------------------------------------------------------------------------------
  Total      -8.87380    -8.87380    11.93750     0.00000     0.00000     0.00000
  in kB      -9.35466    -9.35466    12.58438     0.00000     0.00000     0.00000
  external pressure =       -2.04 kB  Pullay stress =        0.00 kB


 VOLUME and BASIS-vectors are now :
 -----------------------------------------------------------------------------
  energy-cutoff  :      600.00
  volume of cell :     1519.82
      direct lattice vectors                 reciprocal lattice vectors
     8.440984654  0.000000000  0.000000000     0.118469591  0.000000000  0.000000000
     0.000000000  8.440984654  0.000000000     0.000000000  0.118469591  0.000000000
     0.000000000  0.000000000 21.330738491     0.000000000  0.000000000  0.046880702

  length of vectors
     8.440984654  8.440984654 21.330738491     0.118469591  0.118469591  0.046880702


 FORCES acting on ions:
    Electron-Ion                     Ewald-Force                    Non-Local-Force
 -----------------------------------------------------------------------------------------------
   0.961E-13 0.128E-11 -.813E+03   -.222E-13 -.622E-14 0.786E+03   0.000E+00 0.000E+00 0.273E+02
   0.424E-12 -.213E-11 -.141E+04   0.133E-14 0.333E-14 0.147E+04   0.000E+00 0.000E+00 -.600E+02
   -.238E-13 -.118E+00 0.208E+04   0.560E-13 0.118E+00 -.207E+04   0.529E-22 -.170E-03 -.647E+01
   0.118E+00 -.695E-12 0.208E+04   -.118E+00 0.671E-13 -.207E+04   0.170E-03 0.529E-22 -.647E+01
   -.552E-13 0.337E-14 0.712E+03   -.150E-10 0.150E-10 -.713E+03   0.000E+00 0.000E+00 0.460E+00
   0.402E+00 -.402E+00 0.713E+03   -.398E+00 0.398E+00 -.714E+03   -.267E-02 0.267E-02 0.482E+00
   -.430E-13 -.264E+01 -.643E+03   0.157E-11 0.262E+01 0.643E+03   0.298E-22 0.212E-01 -.106E+00
   0.264E+01 -.236E-13 -.643E+03   -.262E+01 -.151E-11 0.643E+03   -.212E-01 0.000E+00 -.106E+00
   -.336E-13 0.327E-12 -.200E+04   0.444E-12 -.416E-12 0.200E+04   0.000E+00 0.397E-22 0.538E+01
   0.167E+02 -.167E+02 -.198E+04   -.168E+02 0.168E+02 0.198E+04   0.779E-01 -.779E-01 0.547E+01
   -.235E-13 0.118E+00 0.208E+04   -.277E-12 -.118E+00 -.207E+04   0.463E-22 0.170E-03 -.647E+01
   0.110E+00 0.337E-13 0.208E+04   -.108E+00 0.131E-10 -.207E+04   -.154E-02 0.000E+00 -.647E+01
   -.602E-13 0.105E-11 0.713E+03   -.165E-10 0.000E+00 -.714E+03   0.529E-22 0.000E+00 0.417E+00
   0.402E+00 0.402E+00 0.713E+03   -.398E+00 -.398E+00 -.714E+03   -.267E-02 -.267E-02 0.482E+00
   -.499E-13 0.264E+01 -.643E+03   0.304E-11 -.262E+01 0.643E+03   0.000E+00 -.212E-01 -.106E+00
   0.363E+01 0.145E-11 -.637E+03   -.356E+01 0.178E-14 0.637E+03   -.751E-01 0.000E+00 -.240E+00
   -.265E-13 0.317E-12 -.199E+04   -.355E-13 -.995E-13 0.198E+04   0.000E+00 -.529E-22 0.538E+01
   0.167E+02 0.167E+02 -.198E+04   -.168E+02 -.168E+02 0.198E+04   0.779E-01 0.779E-01 0.547E+01
   0.923E-12 -.110E+00 0.208E+04   -.129E-10 0.108E+00 -.207E+04   0.000E+00 0.154E-02 -.647E+01
   -.118E+00 -.680E-12 0.208E+04   0.118E+00 0.471E-13 -.207E+04   -.170E-03 0.529E-22 -.647E+01
   0.823E-12 -.135E-13 0.713E+03   0.145E-11 0.150E-10 -.714E+03   0.000E+00 0.000E+00 0.417E+00
   -.402E+00 -.402E+00 0.713E+03   0.398E+00 0.398E+00 -.714E+03   0.267E-02 0.267E-02 0.482E+00
   0.827E-12 -.363E+01 -.637E+03   -.141E-11 0.356E+01 0.637E+03   -.265E-22 0.751E-01 -.240E+00
   -.264E+01 0.337E-14 -.643E+03   0.262E+01 -.156E-11 0.643E+03   0.212E-01 0.000E+00 -.106E+00
   0.912E-12 0.916E-12 -.199E+04   0.782E-13 -.355E-14 0.198E+04   0.000E+00 -.662E-23 0.538E+01
   -.167E+02 -.167E+02 -.198E+04   0.168E+02 0.168E+02 0.198E+04   -.779E-01 -.779E-01 0.547E+01
   0.927E-12 0.110E+00 0.208E+04   -.131E-10 -.108E+00 -.207E+04   0.000E+00 -.154E-02 -.647E+01
   -.110E+00 -.431E-12 0.208E+04   0.108E+00 0.131E-10 -.207E+04   0.154E-02 0.000E+00 -.647E+01
   0.864E-12 0.280E-11 0.713E+03   -.782E-13 0.355E-14 -.714E+03   0.000E+00 -.265E-22 0.563E+00
   -.402E+00 0.402E+00 0.713E+03   0.398E+00 -.398E+00 -.714E+03   0.267E-02 -.267E-02 0.482E+00
   0.831E-12 0.363E+01 -.637E+03   -.284E-13 -.356E+01 0.637E+03   0.529E-22 -.751E-01 -.240E+00
   -.363E+01 -.139E-11 -.637E+03   0.356E+01 0.000E+00 0.637E+03   0.751E-01 0.132E-22 -.240E+00
   0.906E-12 0.104E-11 -.192E+04   -.426E-13 -.391E-13 0.192E+04   0.000E+00 0.000E+00 0.425E+01
   -.167E+02 0.167E+02 -.198E+04   0.168E+02 -.168E+02 0.198E+04   -.779E-01 0.779E-01 0.547E+01
   -.509E-13 -.365E+00 0.534E+03   0.409E-13 0.359E+00 -.534E+03   0.000E+00 0.842E-02 -.737E-01
   0.365E+00 -.293E-12 0.534E+03   -.359E+00 0.391E-13 -.534E+03   -.842E-02 0.744E-23 -.737E-01
   -.506E-13 -.471E-12 0.156E+04   0.853E-11 -.844E-11 -.156E+04   0.000E+00 -.132E-22 0.355E+01
   0.850E-01 -.850E-01 0.156E+04   -.843E-01 0.843E-01 -.156E+04   -.104E-02 0.104E-02 0.355E+01
   -.478E-13 -.694E+01 -.152E+04   -.871E-12 0.688E+01 0.153E+04   0.265E-22 0.592E-01 -.509E+01
   0.694E+01 -.384E-12 -.152E+04   -.688E+01 0.881E-12 0.153E+04   -.592E-01 0.265E-22 -.509E+01
   -.663E-13 -.732E-12 -.479E+03   -.853E-13 0.639E-13 0.478E+03   0.000E+00 0.000E+00 0.258E+00
   0.232E+01 -.232E+01 -.474E+03   -.231E+01 0.231E+01 0.474E+03   -.114E-01 0.114E-01 0.319E+00
   -.559E-13 0.365E+00 0.534E+03   0.142E-13 -.359E+00 -.534E+03   -.331E-23 -.842E-02 -.737E-01
   0.314E+00 0.212E-12 0.535E+03   -.342E+00 -.764E-11 -.534E+03   0.375E-01 0.000E+00 -.941E-01
   -.583E-13 0.539E-13 0.156E+04   0.845E-11 -.796E-12 -.156E+04   0.662E-23 0.000E+00 0.355E+01
   0.850E-01 0.850E-01 0.156E+04   -.843E-01 -.843E-01 -.156E+04   -.104E-02 -.104E-02 0.355E+01
   -.493E-13 0.694E+01 -.152E+04   -.774E-12 -.688E+01 0.153E+04   0.397E-22 -.592E-01 -.509E+01
   0.212E+02 0.184E-11 -.149E+04   -.209E+02 0.810E-11 0.150E+04   -.252E+00 0.000E+00 -.508E+01
   -.545E-13 0.101E-11 -.474E+03   -.741E-11 0.711E-14 0.474E+03   0.000E+00 -.132E-22 0.270E+00
   0.232E+01 0.232E+01 -.474E+03   -.231E+01 -.231E+01 0.474E+03   -.114E-01 -.114E-01 0.319E+00
   0.326E-12 -.314E+00 0.535E+03   0.764E-11 0.342E+00 -.534E+03   0.132E-22 -.375E-01 -.941E-01
   -.365E+00 -.268E-12 0.534E+03   0.359E+00 0.142E-13 -.534E+03   0.842E-02 0.000E+00 -.737E-01
   0.387E-12 -.673E-14 0.156E+04   0.845E-12 -.846E-11 -.156E+04   0.529E-22 0.000E+00 0.355E+01
   -.850E-01 -.850E-01 0.156E+04   0.843E-01 0.843E-01 -.156E+04   0.104E-02 0.104E-02 0.355E+01
   0.352E-12 -.212E+02 -.149E+04   -.816E-11 0.209E+02 0.150E+04   -.265E-22 0.252E+00 -.508E+01
   -.694E+01 -.330E-12 -.152E+04   0.688E+01 0.924E-12 0.153E+04   0.592E-01 0.000E+00 -.509E+01
   0.290E-12 0.684E-12 -.474E+03   -.711E-14 0.738E-11 0.474E+03   0.000E+00 0.000E+00 0.270E+00
   -.232E+01 -.232E+01 -.474E+03   0.231E+01 0.231E+01 0.474E+03   0.114E-01 0.114E-01 0.319E+00
   0.330E-12 0.314E+00 0.535E+03   0.763E-11 -.342E+00 -.534E+03   0.000E+00 0.375E-01 -.941E-01
   -.314E+00 0.114E-11 0.535E+03   0.342E+00 -.769E-11 -.534E+03   -.375E-01 -.662E-23 -.941E-01
   0.376E-12 0.102E-11 0.156E+04   0.824E-12 -.838E-12 -.156E+04   0.000E+00 -.529E-22 0.355E+01
   -.850E-01 0.850E-01 0.156E+04   0.843E-01 -.843E-01 -.156E+04   0.104E-02 -.104E-02 0.355E+01
   0.364E-12 0.212E+02 -.149E+04   -.820E-11 -.209E+02 0.150E+04   0.106E-21 -.252E+00 -.508E+01
   -.212E+02 -.862E-12 -.149E+04   0.209E+02 0.819E-11 0.150E+04   0.252E+00 0.794E-22 -.508E+01
   0.270E-12 0.189E-12 -.475E+03   -.497E-13 0.426E-13 0.475E+03   0.000E+00 0.000E+00 -.192E+00
   -.232E+01 0.232E+01 -.474E+03   0.231E+01 -.231E+01 0.474E+03   0.114E-01 -.114E-01 0.319E+00
 -----------------------------------------------------------------------------------------------
   0.263E-10 0.186E-10 0.508E+02   0.176E-12 -.129E-12 0.455E-11   0.139E-16 -.121E-16 -.508E+02


 POSITION                                       TOTAL-FORCE (eV/Angst)
 -----------------------------------------------------------------------------------
      4.22049      4.22049     16.42814        -0.000000     -0.000000      0.200355
      4.22049      4.22049     17.57496        -0.000000      0.000000     -0.203383
      0.00000      6.33074      7.50000        -0.000000     -0.000010      0.149520
      2.11025      0.00000      7.50000         0.000010      0.000000      0.149520
      0.00000      0.00000      9.61025        -0.000000      0.000000      0.035926
      2.11025      6.33074      9.61025         0.001619     -0.001619      0.038796
      0.00000      6.33023     11.73368        -0.000000     -0.001358      0.028522
      2.11076      0.00000     11.73368         0.001358      0.000000      0.028522
      0.00000      0.00000     13.83822        -0.000000      0.000000      0.201120
      2.10905      6.33193     13.83447        -0.009350      0.009350      0.184956
      0.00000      2.11025      7.50000        -0.000000      0.000010      0.149520
      2.11025      4.22049      7.50000         0.000687      0.000000      0.149576
      0.00000      4.22049      9.61025        -0.000000      0.000000      0.046283
      2.11025      2.11025      9.61025         0.001619      0.001619      0.038796
      0.00000      2.11076     11.73368        -0.000000      0.001358      0.028522
      2.11344      4.22049     11.73659        -0.008043      0.000000      0.038051
      0.00000      4.22049     13.83544        -0.000000      0.000000      0.192733
      2.10905      2.10905     13.83447        -0.009350     -0.009350      0.184956
      4.22049      6.33074      7.50000        -0.000000     -0.000687      0.149576
      6.33074      0.00000      7.50000        -0.000010     -0.000000      0.149520
      4.22049      0.00000      9.61025        -0.000000      0.000000      0.046283
      6.33074      6.33074      9.61025        -0.001619     -0.001619      0.038796
      4.22049      6.32754     11.73659        -0.000000      0.008043      0.038051
      6.33023      0.00000     11.73368        -0.001358      0.000000      0.028522
      4.22049      0.00000     13.83544        -0.000000      0.000000      0.192733
      6.33193      6.33193     13.83447         0.009350      0.009350      0.184956
      4.22049      2.11025      7.50000        -0.000000      0.000687      0.149576
      6.33074      4.22049      7.50000        -0.000687      0.000000      0.149576
      4.22049      4.22049      9.61025        -0.000000      0.000000      0.055335
      6.33074      2.11025      9.61025        -0.001619      0.001619      0.038796
      4.22049      2.11344     11.73659        -0.000000     -0.008043      0.038051
      6.32754      4.22049     11.73659         0.008043      0.000000      0.038051
      4.22049      4.22049     13.87814        -0.000000      0.000000      0.290160
      6.33193      2.10905     13.83447         0.009350     -0.009350      0.184956
      0.00000      6.33074      9.61025        -0.000000      0.002476      0.071592
      2.11025      0.00000      9.61025        -0.002476     -0.000000      0.071592
      0.00000      0.00000      7.50000        -0.000000      0.000000     -0.561311
      2.11025      6.33074      7.50000        -0.000280      0.000280     -0.561070
      0.00000      6.33258     13.88587        -0.000000     -0.001437      0.049407
      2.10840      0.00000     13.88587         0.001437      0.000000      0.049407
      0.00000      0.00000     11.72785        -0.000000     -0.000000      0.018761
      2.10979      6.33120     11.72890         0.001999     -0.001999      0.009297
      0.00000      2.11025      9.61025        -0.000000     -0.002476      0.071592
      2.11025      4.22049      9.61025         0.010013      0.000000      0.080729
      0.00000      4.22049      7.50000        -0.000000      0.000000     -0.561188
      2.11025      2.11025      7.50000        -0.000280     -0.000280     -0.561070
      0.00000      2.10840     13.88587        -0.000000      0.001437      0.049407
      2.10031      4.22049     13.88381         0.015385      0.000000      0.043836
      0.00000      4.22049     11.72684        -0.000000     -0.000000      0.012602
      2.10979      2.10979     11.72890         0.001999      0.001999      0.009297
      4.22049      6.33074      9.61025        -0.000000     -0.010013      0.080729
      6.33074      0.00000      9.61025         0.002476      0.000000      0.071592
      4.22049      0.00000      7.50000        -0.000000      0.000000     -0.561188
      6.33074      6.33074      7.50000         0.000280      0.000280     -0.561070
      4.22049      6.34068     13.88381        -0.000000     -0.015385      0.043836
      6.33258      0.00000     13.88587        -0.001437      0.000000      0.049407
      4.22049      0.00000     11.72684        -0.000000      0.000000      0.012602
      6.33120      6.33120     11.72890        -0.001999     -0.001999      0.009297
      4.22049      2.11025      9.61025        -0.000000      0.010013      0.080729
      6.33074      4.22049      9.61025        -0.010013      0.000000      0.080729
      4.22049      4.22049      7.50000        -0.000000      0.000000     -0.561839
      6.33074      2.11025      7.50000         0.000280     -0.000280     -0.561070
      4.22049      2.10031     13.88381        -0.000000      0.015385      0.043836
      6.34068      4.22049     13.88381        -0.015385      0.000000      0.043836
      4.22049      4.22049     11.73684        -0.000000      0.000000      0.011171
      6.33120      2.10979     11.72890        -0.001999      0.001999      0.009297
 -----------------------------------------------------------------------------------
    total drift:                                0.000000      0.000000     -0.007386


--------------------------------------------------------------------------------------------------------



  FREE ENERGIE OF THE ION-ELECTRON SYSTEM (eV)
  ---------------------------------------------------
  free  energy   TOTEN  =      -239.03144875 eV

  energy  without entropy=     -239.03144875  energy(sigma->0) =     -239.03144875



--------------------------------------------------------------------------------------------------------


    POTLOK:  cpu time      0.5173: real time      0.5179


--------------------------------------------------------------------------------------------------------


     LOOP+:  cpu time     62.5188: real time     62.9238
    4ORBIT:  cpu time      0.0000: real time      0.0000

 total amount of memory used by VASP MPI-rank0    78528. kBytes
=======================================================================

   base      :      30000. kBytes
   nonl-proj :      29343. kBytes
   fftplans  :       3857. kBytes
   grid      :       5885. kBytes
   one-center:        137. kBytes
   wavefun   :       9306. kBytes

  
  
 General timing and accounting informations for this job:
 ========================================================
  
                  Total CPU time used (sec):       80.587
                            User time (sec):       78.236
                          System time (sec):        2.350
                         Elapsed time (sec):       85.305
  
                   Maximum memory used (kb):      269700.
                   Average memory used (kb):          N/A
  
                          Minor page faults:        32497
                          Major page faults:           48
                 Voluntary context switches:         7392
