 vasp.6.3.0 20Jan22 (build Apr  1 2022 16:44:48) complex                         
 executed on        HPECrayEX_GCC date 2023.05.17  21:51:08
 running  512 mpi-ranks, with    1 threads/rank
 distrk:  each k-point on  512 cores,    1 groups
 distr:  one band on NCORE=   8 cores,   64 groups


--------------------------------------------------------------------------------------------------------


 INCAR:
   SYSTEM = MgO-rocksalt
   ISMEAR = 0
   SIGMA = 0.05
   EDIFF = 1E-6
   ALGO = ALL
   ISTART = 0
   IBRION = -1
   NSW = 0
   ISYM = 2
   ISIF = 2
   EDIFFG = -0.01
   DIPOL = 0.5 0.5 0.5
   IDIPOL = 3
   LDIPOL = .TRUE.
   LHFCALC = .TRUE.
   GGA = PE
   IVDW = 13
   VDW_S8 = 1.2007
   VDW_A1 = 0.4009
   VDW_A2 = 5.0293
   ENCUT = 600
   PREC = Normal
   LASPH = .TRUE.
   LREAL = .FALSE.
   ISPIN = 1
   NELM = 200
   NELMIN = 8
   NCORE = 8
   KPAR = 1
   LWAVE = .FALSE.
   LCHARG = .FALSE.

 POTCAR:    PAW_PBE C 08Apr2002                   
 POTCAR:    PAW_PBE O 08Apr2002                   
 POTCAR:    PAW_PBE Mg_pv 13Apr2007               
 POTCAR:    PAW_PBE O 08Apr2002                   
 -----------------------------------------------------------------------------
|                                                                             |
|           W    W    AA    RRRRR   N    N  II  N    N   GGGG   !!!           |
|           W    W   A  A   R    R  NN   N  II  NN   N  G    G  !!!           |
|           W    W  A    A  R    R  N N  N  II  N N  N  G       !!!           |
|           W WW W  AAAAAA  RRRRR   N  N N  II  N  N N  G  GGG   !            |
|           WW  WW  A    A  R   R   N   NN  II  N   NN  G    G                |
|           W    W  A    A  R    R  N    N  II  N    N   GGGG   !!!           |
|                                                                             |
|     You have selected ISYM=2 for a HF type calculation. This will           |
|     symmetrize the charge density but not the exchange potential. I         |
|     suggest to use ISYM=3 instead. This uses symmetry to obtain the         |
|     orbitals at all k-points in the Brillouin zone, but does not apply      |
|     symmetry to the Hartree potential directly. The resultant charge        |
|     might have lower symmetry than the crystal but, at least, Hartree       |
|     and exchange are fully compatible.                                      |
|                                                                             |
 -----------------------------------------------------------------------------

 POTCAR:    PAW_PBE C 08Apr2002                   
   SHA256 =  253f7b50bb8d59471dbedb8285d89021f4a42ed1a2c5d38a03a736e69125dd95 C/POTCAR              
   COPYR  = (c) Copyright 08Apr2002 Georg Kresse                                                    
   COPYR  = This file is part of the software VASP. Any use, copying, and all other rights are regul
   COPYR  = If you do not have a valid VASP license, you may not use, copy or distribute this file. 
   VRHFIN =C: s2p2                                                                                  
   LEXCH  = PE                                                                                      
   EATOM  =   147.1560 eV,   10.8157 Ry                                                             
                                                                                                    
   TITEL  = PAW_PBE C 08Apr2002                                                                     
   LULTRA =        F    use ultrasoft PP ?                                                          
   IUNSCR =        1    unscreen: 0-lin 1-nonlin 2-no                                               
   RPACOR =    1.200    partial core radius                                                         
   POMASS =   12.011; ZVAL   =    4.000    mass and valenz                                          
   RCORE  =    1.500    outmost cutoff radius                                                       
   RWIGS  =    1.630; RWIGS  =    0.863    wigner-seitz radius (au A)                               
   ENMAX  =  400.000; ENMIN  =  300.000 eV                                                          
   ICORE  =        2    local potential                                                             
   LCOR   =        T    correct aug charges                                                         
   LPAW   =        T    paw PP                                                                      
   EAUG   =  644.873                                                                                
   DEXC   =    0.000                                                                                
   RMAX   =    1.529    core radius for proj-oper                                                   
   RAUG   =    1.300    factor for augmentation sphere                                              
   RDEP   =    1.501    radius for radial grids                                                     
   RDEPT  =    1.300    core radius for aug-charge                                                  
                                                                                                    
   Atomic configuration                                                                             
    4 entries                                                                                       
     n  l   j            E        occ.                                                              
     1  0  0.50      -273.3789   2.0000                                                             
     2  0  0.50       -13.7508   2.0000                                                             
     2  1  0.50        -5.2854   2.0000                                                             
     3  2  1.50        -5.4423   0.0000                                                             
   Description                                                                                      
     l       E           TYP  RCUT    TYP  RCUT                                                     
     0    -13.7508458     23  1.200                                                                 
     0     -8.2022199     23  1.200                                                                 
     1     -5.2854383     23  1.500                                                                 
     1     34.0145650     23  1.500                                                                 
     2     -5.4423304      7  1.500                                                                 
  local pseudopotential read in
  partial core-charges read in
  partial kinetic energy density read in
  atomic valenz-charges read in
  non local Contribution for L=           0  read in
    real space projection operators read in
  non local Contribution for L=           0  read in
    real space projection operators read in
  non local Contribution for L=           1  read in
    real space projection operators read in
  non local Contribution for L=           1  read in
    real space projection operators read in
    PAW grid and wavefunctions read in

   number of l-projection  operators is LMAX  =           4
   number of lm-projection operators is LMMAX =           8

 POTCAR:    PAW_PBE O 08Apr2002                   
   SHA256 =  818f92134a0a090dccd8ba1447fa70422a3b330e708bb4f08108d8ae51209ddf O/POTCAR              
   COPYR  = (c) Copyright 08Apr2002 Georg Kresse                                                    
   COPYR  = This file is part of the software VASP. Any use, copying, and all other rights are regul
   COPYR  = If you do not have a valid VASP license, you may not use, copy or distribute this file. 
   VRHFIN =O: s2p4                                                                                  
   LEXCH  = PE                                                                                      
   EATOM  =   432.3788 eV,   31.7789 Ry                                                             
                                                                                                    
   TITEL  = PAW_PBE O 08Apr2002                                                                     
   LULTRA =        F    use ultrasoft PP ?                                                          
   IUNSCR =        1    unscreen: 0-lin 1-nonlin 2-no                                               
   RPACOR =    1.200    partial core radius                                                         
   POMASS =   16.000; ZVAL   =    6.000    mass and valenz                                          
   RCORE  =    1.520    outmost cutoff radius                                                       
   RWIGS  =    1.550; RWIGS  =    0.820    wigner-seitz radius (au A)                               
   ENMAX  =  400.000; ENMIN  =  300.000 eV                                                          
   ICORE  =        2    local potential                                                             
   LCOR   =        T    correct aug charges                                                         
   LPAW   =        T    paw PP                                                                      
   EAUG   =  605.392                                                                                
   DEXC   =    0.000                                                                                
   RMAX   =    1.553    core radius for proj-oper                                                   
   RAUG   =    1.300    factor for augmentation sphere                                              
   RDEP   =    1.550    radius for radial grids                                                     
   RDEPT  =    1.329    core radius for aug-charge                                                  
                                                                                                    
   Atomic configuration                                                                             
    4 entries                                                                                       
     n  l   j            E        occ.                                                              
     1  0  0.50      -514.6923   2.0000                                                             
     2  0  0.50       -23.9615   2.0000                                                             
     2  1  0.50        -9.0305   4.0000                                                             
     3  2  1.50        -9.5241   0.0000                                                             
   Description                                                                                      
     l       E           TYP  RCUT    TYP  RCUT                                                     
     0    -23.9615318     23  1.200                                                                 
     0     -9.5240782     23  1.200                                                                 
     1     -9.0304911     23  1.520                                                                 
     1      8.1634956     23  1.520                                                                 
     2     -9.5240782      7  1.500                                                                 
  local pseudopotential read in
  partial core-charges read in
  partial kinetic energy density read in
  kinetic energy density of atom read in
  atomic valenz-charges read in
  non local Contribution for L=           0  read in
    real space projection operators read in
  non local Contribution for L=           0  read in
    real space projection operators read in
  non local Contribution for L=           1  read in
    real space projection operators read in
  non local Contribution for L=           1  read in
    real space projection operators read in
    PAW grid and wavefunctions read in

   number of l-projection  operators is LMAX  =           4
   number of lm-projection operators is LMMAX =           8

 POTCAR:    PAW_PBE Mg_pv 13Apr2007               
   SHA256 =  f474ac0dd33840b9ae76c01d57fea79fdf77cdfbb07d5ade72c65f83c709b62b Mg_pv/POTCAR          
   COPYR  = (c) Copyright 13Apr2007 Georg Kresse                                                    
   COPYR  = This file is part of the software VASP. Any use, copying, and all other rights are regul
   COPYR  = If you do not have a valid VASP license, you may not use, copy or distribute this file. 
   VRHFIN =Mg: p6s2                                                                                 
   LEXCH  = PE                                                                                      
   EATOM  =  1056.7344 eV,   77.6678 Ry                                                             
                                                                                                    
   TITEL  = PAW_PBE Mg_pv 13Apr2007                                                                 
   LULTRA =        F    use ultrasoft PP ?                                                          
   IUNSCR =        1    unscreen: 0-lin 1-nonlin 2-no                                               
   RPACOR =    1.500    partial core radius                                                         
   POMASS =   24.305; ZVAL   =    8.000    mass and valenz                                          
   RCORE  =    2.000    outmost cutoff radius                                                       
   RWIGS  =    2.000; RWIGS  =    1.058    wigner-seitz radius (au A)                               
   ENMAX  =  403.929; ENMIN  =  302.947 eV                                                          
   RCLOC  =    1.506    cutoff for local pot                                                        
   LCOR   =        T    correct aug charges                                                         
   LPAW   =        T    paw PP                                                                      
   EAUG   =  758.780                                                                                
   DEXC   =    0.000                                                                                
   RMAX   =    2.045    core radius for proj-oper                                                   
   RAUG   =    1.300    factor for augmentation sphere                                              
   RDEP   =    2.025    radius for radial grids                                                     
   RDEPT  =    1.557    core radius for aug-charge                                                  
                                                                                                    
   Atomic configuration                                                                             
    5 entries                                                                                       
     n  l   j            E        occ.                                                              
     1  0  0.50     -1259.6230   2.0000                                                             
     2  0  0.50       -79.8442   2.0000                                                             
     2  1  1.50       -46.6121   6.0000                                                             
     3  0  0.50        -4.7055   2.0000                                                             
     3  2  1.50        -1.3606   0.0000                                                             
   Description                                                                                      
     l       E           TYP  RCUT    TYP  RCUT                                                     
     1    -46.6121073     23  1.600                                                                 
     1      2.7211652     23  1.600                                                                 
     0     -4.7054661     23  2.000                                                                 
     0     61.2262170     23  2.000                                                                 
     2     -1.3605826     23  2.000                                                                 
  local pseudopotential read in
  partial core-charges read in
  partial kinetic energy density read in
  atomic valenz-charges read in
  non local Contribution for L=           1  read in
    real space projection operators read in
  non local Contribution for L=           1  read in
    real space projection operators read in
  non local Contribution for L=           0  read in
    real space projection operators read in
  non local Contribution for L=           0  read in
    real space projection operators read in
  non local Contribution for L=           2  read in
    real space projection operators read in
    PAW grid and wavefunctions read in

   number of l-projection  operators is LMAX  =           5
   number of lm-projection operators is LMMAX =          13

 POTCAR:    PAW_PBE O 08Apr2002                   
   SHA256 =  818f92134a0a090dccd8ba1447fa70422a3b330e708bb4f08108d8ae51209ddf O/POTCAR              
   COPYR  = (c) Copyright 08Apr2002 Georg Kresse                                                    
   COPYR  = This file is part of the software VASP. Any use, copying, and all other rights are regul
   COPYR  = If you do not have a valid VASP license, you may not use, copy or distribute this file. 
   VRHFIN =O: s2p4                                                                                  
   LEXCH  = PE                                                                                      
   EATOM  =   432.3788 eV,   31.7789 Ry                                                             
                                                                                                    
   TITEL  = PAW_PBE O 08Apr2002                                                                     
   LULTRA =        F    use ultrasoft PP ?                                                          
   IUNSCR =        1    unscreen: 0-lin 1-nonlin 2-no                                               
   RPACOR =    1.200    partial core radius                                                         
   POMASS =   16.000; ZVAL   =    6.000    mass and valenz                                          
   RCORE  =    1.520    outmost cutoff radius                                                       
   RWIGS  =    1.550; RWIGS  =    0.820    wigner-seitz radius (au A)                               
   ENMAX  =  400.000; ENMIN  =  300.000 eV                                                          
   ICORE  =        2    local potential                                                             
   LCOR   =        T    correct aug charges                                                         
   LPAW   =        T    paw PP                                                                      
   EAUG   =  605.392                                                                                
   DEXC   =    0.000                                                                                
   RMAX   =    1.553    core radius for proj-oper                                                   
   RAUG   =    1.300    factor for augmentation sphere                                              
   RDEP   =    1.550    radius for radial grids                                                     
   RDEPT  =    1.329    core radius for aug-charge                                                  
                                                                                                    
   Atomic configuration                                                                             
    4 entries                                                                                       
     n  l   j            E        occ.                                                              
     1  0  0.50      -514.6923   2.0000                                                             
     2  0  0.50       -23.9615   2.0000                                                             
     2  1  0.50        -9.0305   4.0000                                                             
     3  2  1.50        -9.5241   0.0000                                                             
   Description                                                                                      
     l       E           TYP  RCUT    TYP  RCUT                                                     
     0    -23.9615318     23  1.200                                                                 
     0     -9.5240782     23  1.200                                                                 
     1     -9.0304911     23  1.520                                                                 
     1      8.1634956     23  1.520                                                                 
     2     -9.5240782      7  1.500                                                                 
  local pseudopotential read in
  partial core-charges read in
  partial kinetic energy density read in
  kinetic energy density of atom read in
  atomic valenz-charges read in
  non local Contribution for L=           0  read in
    real space projection operators read in
  non local Contribution for L=           0  read in
    real space projection operators read in
  non local Contribution for L=           1  read in
    real space projection operators read in
  non local Contribution for L=           1  read in
    real space projection operators read in
    PAW grid and wavefunctions read in

   number of l-projection  operators is LMAX  =           4
   number of lm-projection operators is LMMAX =           8

 -----------------------------------------------------------------------------
|                                                                             |
|               ----> ADVICE to this user running VASP <----                  |
|                                                                             |
|     You have a (more or less) 'large supercell' and for larger cells it     |
|     might be more efficient to use real-space projection operators.         |
|     Therefore, try LREAL= Auto in the INCAR file.                           |
|     Mind: For very accurate calculation, you might also keep the            |
|     reciprocal projection scheme (i.e. LREAL=.FALSE.).                      |
|                                                                             |
 -----------------------------------------------------------------------------

  PAW_PBE C 08Apr2002                   :
 energy of atom  1       EATOM= -147.1560
 kinetic energy error for atom=    0.0057 (will be added to EATOM!!)
  PAW_PBE O 08Apr2002                   :
 energy of atom  2       EATOM= -432.3788
 kinetic energy error for atom=    0.0168 (will be added to EATOM!!)
  PAW_PBE Mg_pv 13Apr2007               :
 energy of atom  3       EATOM=-1056.7344
 kinetic energy error for atom=    0.0221 (will be added to EATOM!!)
  PAW_PBE O 08Apr2002                   :
 energy of atom  4       EATOM= -432.3788
 kinetic energy error for atom=    0.0168 (will be added to EATOM!!)


 POSCAR:  C  O Mg  O
  positions in direct lattice
  No initial velocities read in
 -----------------------------------------------------------------------------
|                                                                             |
|           W    W    AA    RRRRR   N    N  II  N    N   GGGG   !!!           |
|           W    W   A  A   R    R  NN   N  II  NN   N  G    G  !!!           |
|           W    W  A    A  R    R  N N  N  II  N N  N  G       !!!           |
|           W WW W  AAAAAA  RRRRR   N  N N  II  N  N N  G  GGG   !            |
|           WW  WW  A    A  R   R   N   NN  II  N   NN  G    G                |
|           W    W  A    A  R    R  N    N  II  N    N   GGGG   !!!           |
|                                                                             |
|     Specifying the vdW parameters                                           |
|     VDW_S8 = 1.201                                                          |
|     VDW_A1 = 0.401                                                          |
|     VDW_A2 = 5.029                                                          |
|     in the INCAR file will overwrite the defaults for pbe0. Please make     |
|     sure that is what you intended.                                         |
|                                                                             |
 -----------------------------------------------------------------------------

 exchange correlation table for  LEXCH =        8
   RHO(1)=    0.500       N(1)  =     2000
   RHO(2)=  100.500       N(2)  =     4000



--------------------------------------------------------------------------------------------------------


 ion  position               nearest neighbor table
   1  0.500  0.500  0.770-   2 1.15
   2  0.500  0.500  0.824-   1 1.15
   3  0.000  0.750  0.352-  35 2.11  37 2.11  38 2.11  45 2.11  54 2.11
   4  0.250  0.000  0.352-  36 2.11  37 2.11  38 2.11  46 2.11  53 2.11
   5  0.000  0.000  0.451-  37 2.11  36 2.11  35 2.11  43 2.11  52 2.11  41 2.12
   6  0.250  0.750  0.451-  38 2.11  36 2.11  35 2.11  44 2.11  51 2.11  42 2.12
   7  0.000  0.750  0.550-  49 2.11  42 2.11  58 2.11  41 2.11  35 2.12  39 2.15
   8  0.250  0.000  0.550-  57 2.11  50 2.11  42 2.11  41 2.11  36 2.12  40 2.15
   9  0.000  0.000  0.649-  39 2.11  40 2.11  47 2.11  56 2.11  41 2.11
  10  0.250  0.750  0.649-  42 2.11  40 2.11  39 2.11  48 2.11  55 2.11
  11  0.000  0.250  0.352-  43 2.11  37 2.11  45 2.11  46 2.11  62 2.11
  12  0.250  0.500  0.352-  44 2.11  38 2.11  45 2.11  46 2.11  61 2.11
  13  0.000  0.500  0.451-  45 2.11  43 2.11  44 2.11  35 2.11  60 2.11  49 2.12
  14  0.250  0.250  0.451-  46 2.11  43 2.11  44 2.11  36 2.11  59 2.11  50 2.12
  15  0.000  0.250  0.550-  49 2.11  50 2.11  66 2.11  41 2.11  43 2.12  47 2.15
  16  0.250  0.500  0.550-  65 2.11  50 2.11  42 2.11  49 2.11  44 2.13  48 2.15
  17  0.000  0.500  0.649-  48 2.10  64 2.10  49 2.11  47 2.11  39 2.11
  18  0.250  0.250  0.649-  50 2.11  47 2.11  40 2.11  48 2.11  63 2.11
  19  0.500  0.750  0.352-  51 2.11  38 2.11  53 2.11  54 2.11  61 2.11
  20  0.750  0.000  0.352-  52 2.11  37 2.11  53 2.11  54 2.11  62 2.11
  21  0.500  0.000  0.451-  53 2.11  51 2.11  52 2.11  36 2.11  59 2.11  57 2.12
  22  0.750  0.750  0.451-  54 2.11  51 2.11  52 2.11  35 2.11  60 2.11  58 2.12
  23  0.500  0.750  0.550-  65 2.11  58 2.11  42 2.11  57 2.11  51 2.13  55 2.15
  24  0.750  0.000  0.550-  57 2.11  58 2.11  66 2.11  41 2.11  52 2.12  56 2.15
  25  0.500  0.000  0.649-  55 2.10  63 2.10  57 2.11  40 2.11  56 2.11
  26  0.750  0.750  0.649-  58 2.11  56 2.11  39 2.11  55 2.11  64 2.11
  27  0.500  0.250  0.352-  59 2.11  53 2.11  46 2.11  61 2.11  62 2.11
  28  0.750  0.500  0.352-  60 2.11  54 2.11  45 2.11  61 2.11  62 2.11
  29  0.500  0.500  0.451-  61 2.11  51 2.11  59 2.11  60 2.11  44 2.11  65 2.13
  30  0.750  0.250  0.451-  62 2.11  52 2.11  59 2.11  60 2.11  43 2.11  66 2.12
  31  0.500  0.250  0.550-  65 2.11  50 2.11  66 2.11  57 2.11  59 2.13  63 2.15
  32  0.750  0.500  0.550-  65 2.11  58 2.11  66 2.11  49 2.11  60 2.13  64 2.15
  33  0.500  0.500  0.651-  48 2.12  55 2.12  63 2.12  64 2.12  65 2.14
  34  0.750  0.250  0.649-  66 2.11  56 2.11  47 2.11  64 2.11  63 2.11
  35  0.000  0.750  0.451-   3 2.11   5 2.11   6 2.11  13 2.11  22 2.11   7 2.12
  36  0.250  0.000  0.451-   4 2.11   5 2.11   6 2.11  14 2.11  21 2.11   8 2.12
  37  0.000  0.000  0.352-   5 2.11   4 2.11   3 2.11  11 2.11  20 2.11
  38  0.250  0.750  0.352-   6 2.11   4 2.11   3 2.11  12 2.11  19 2.11
  39  0.000  0.750  0.651-   9 2.11  10 2.11  26 2.11  17 2.11   7 2.15
  40  0.250  0.000  0.651-   9 2.11  10 2.11  18 2.11  25 2.11   8 2.15
  41  0.000  0.000  0.550-   9 2.11   8 2.11   7 2.11  15 2.11  24 2.11   5 2.12
  42  0.250  0.750  0.550-  10 2.11   8 2.11   7 2.11  16 2.11  23 2.11   6 2.12
  43  0.000  0.250  0.451-  11 2.11   5 2.11  13 2.11  14 2.11  30 2.11  15 2.12
  44  0.250  0.500  0.451-  12 2.11   6 2.11  13 2.11  14 2.11  29 2.11  16 2.13
  45  0.000  0.500  0.352-  13 2.11  11 2.11  12 2.11   3 2.11  28 2.11
  46  0.250  0.250  0.352-  14 2.11  11 2.11  12 2.11   4 2.11  27 2.11
  47  0.000  0.250  0.651-   9 2.11  18 2.11  34 2.11  17 2.11  15 2.15
  48  0.249  0.500  0.651-  17 2.10  10 2.11  18 2.11  33 2.12  16 2.15
  49  0.000  0.500  0.550-  17 2.11  15 2.11   7 2.11  16 2.11  32 2.11  13 2.12
  50  0.250  0.250  0.550-  18 2.11  15 2.11   8 2.11  16 2.11  31 2.11  14 2.12
  51  0.500  0.750  0.451-  19 2.11   6 2.11  21 2.11  22 2.11  29 2.11  23 2.13
  52  0.750  0.000  0.451-  20 2.11   5 2.11  21 2.11  22 2.11  30 2.11  24 2.12
  53  0.500  0.000  0.352-  21 2.11  19 2.11  20 2.11   4 2.11  27 2.11
  54  0.750  0.750  0.352-  22 2.11  19 2.11  20 2.11   3 2.11  28 2.11
  55  0.500  0.751  0.651-  25 2.10  10 2.11  26 2.11  33 2.12  23 2.15
  56  0.750  0.000  0.651-   9 2.11  26 2.11  34 2.11  25 2.11  24 2.15
  57  0.500  0.000  0.550-  25 2.11  24 2.11   8 2.11  23 2.11  31 2.11  21 2.12
  58  0.750  0.750  0.550-  26 2.11  24 2.11   7 2.11  32 2.11  23 2.11  22 2.12
  59  0.500  0.250  0.451-  27 2.11  21 2.11  14 2.11  29 2.11  30 2.11  31 2.13
  60  0.750  0.500  0.451-  28 2.11  22 2.11  13 2.11  29 2.11  30 2.11  32 2.13
  61  0.500  0.500  0.352-  29 2.11  19 2.11  27 2.11  28 2.11  12 2.11
  62  0.750  0.250  0.352-  30 2.11  20 2.11  27 2.11  28 2.11  11 2.11
  63  0.500  0.249  0.651-  25 2.10  18 2.11  34 2.11  33 2.12  31 2.15
  64  0.751  0.500  0.651-  17 2.10  26 2.11  34 2.11  33 2.12  32 2.15
  65  0.500  0.500  0.550-  16 2.11  23 2.11  31 2.11  32 2.11  29 2.13  33 2.14
  66  0.750  0.250  0.550-  34 2.11  24 2.11  15 2.11  32 2.11  31 2.11  30 2.12

  LATTYP: Found a simple tetragonal cell.
 ALAT       =     8.4409846542
 C/A-ratio  =     2.5270438657
  
  Lattice vectors:
  
 A1 = (   8.4409846542,   0.0000000000,   0.0000000000)
 A2 = (   0.0000000000,   8.4409846542,   0.0000000000)
 A3 = (   0.0000000000,   0.0000000000,  21.3307384906)


Analysis of symmetry for initial positions (statically):
=====================================================================
 Subroutine PRICEL returns:
 Original cell was already a primitive cell.
 

 Routine SETGRP: Setting up the symmetry group for a 
 simple tetragonal supercell.


 Subroutine GETGRP returns: Found  8 space group operations
 (whereof  8 operations were pure point group operations)
 out of a pool of 16 trial point group operations.


The static configuration has the point symmetry C_4v.


Analysis of symmetry for dynamics (positions and initial velocities):
=====================================================================
 Subroutine PRICEL returns:
 Original cell was already a primitive cell.
 

 Routine SETGRP: Setting up the symmetry group for a 
 simple tetragonal supercell.


 Subroutine GETGRP returns: Found  8 space group operations
 (whereof  8 operations were pure point group operations)
 out of a pool of 16 trial point group operations.


The dynamic configuration has the point symmetry C_4v.


 Subroutine INISYM returns: Found  8 space group operations
 (whereof  8 operations are pure point group operations),
 and found     1 'primitive' translations


----------------------------------------------------------------------------------------

                                     Primitive cell                                     

  volume of cell :    1519.8199

  direct lattice vectors                    reciprocal lattice vectors
     8.440984654  0.000000000  0.000000000     0.118469591  0.000000000  0.000000000
     0.000000000  8.440984654  0.000000000     0.000000000  0.118469591  0.000000000
     0.000000000  0.000000000 21.330738491     0.000000000  0.000000000  0.046880702

  length of vectors
     8.440984654  8.440984654 21.330738491     0.118469591  0.118469591  0.046880702

  position of ions in fractional coordinates (direct lattice)
     0.500000000  0.500000000  0.770162751
     0.500000000  0.500000000  0.823926469
     0.000000000  0.750000000  0.351605267
     0.250000000  0.000000000  0.351605267
     0.000000000  0.000000000  0.450535089
     0.250000000  0.750000000  0.450535089
     0.000000000  0.749939268  0.550083239
     0.250060732  0.000000000  0.550083239
     0.000000000  0.000000000  0.648745309
     0.249858327  0.750141673  0.648569547
     0.000000000  0.250000000  0.351605267
     0.250000000  0.500000000  0.351605267
     0.000000000  0.500000000  0.450535089
     0.250000000  0.250000000  0.450535089
     0.000000000  0.250060732  0.550083239
     0.250378379  0.500000000  0.550219524
     0.000000000  0.500000000  0.648615280
     0.249858327  0.249858327  0.648569547
     0.500000000  0.750000000  0.351605267
     0.750000000  0.000000000  0.351605267
     0.500000000  0.000000000  0.450535089
     0.750000000  0.750000000  0.450535089
     0.500000000  0.749621621  0.550219524
     0.749939268  0.000000000  0.550083239
     0.500000000  0.000000000  0.648615280
     0.750141673  0.750141673  0.648569547
     0.500000000  0.250000000  0.351605267
     0.750000000  0.500000000  0.351605267
     0.500000000  0.500000000  0.450535089
     0.750000000  0.250000000  0.450535089
     0.500000000  0.250378379  0.550219524
     0.749621621  0.500000000  0.550219524
     0.500000000  0.500000000  0.650616960
     0.750141673  0.249858327  0.648569547
     0.000000000  0.750000000  0.450535089
     0.250000000  0.000000000  0.450535089
     0.000000000  0.000000000  0.351605267
     0.250000000  0.750000000  0.351605267
     0.000000000  0.750218533  0.650979255
     0.249781467  0.000000000  0.650979255
     0.000000000  0.000000000  0.549809890
     0.249945770  0.750054230  0.549859113
     0.000000000  0.250000000  0.450535089
     0.250000000  0.500000000  0.450535089
     0.000000000  0.500000000  0.351605267
     0.250000000  0.250000000  0.351605267
     0.000000000  0.249781467  0.650979255
     0.248822710  0.500000000  0.650882872
     0.000000000  0.500000000  0.549762666
     0.249945770  0.249945770  0.549859113
     0.500000000  0.750000000  0.450535089
     0.750000000  0.000000000  0.450535089
     0.500000000  0.000000000  0.351605267
     0.750000000  0.750000000  0.351605267
     0.500000000  0.751177290  0.650882872
     0.750218533  0.000000000  0.650979255
     0.500000000  0.000000000  0.549762666
     0.750054230  0.750054230  0.549859113
     0.500000000  0.250000000  0.450535089
     0.750000000  0.500000000  0.450535089
     0.500000000  0.500000000  0.351605267
     0.750000000  0.250000000  0.351605267
     0.500000000  0.248822710  0.650882872
     0.751177290  0.500000000  0.650882872
     0.500000000  0.500000000  0.550231357
     0.750054230  0.249945770  0.549859113

  ion indices of the primitive-cell ions
   primitive index   ion index
                 1           1
                 2           2
                 3           3
                 4           4
                 5           5
                 6           6
                 7           7
                 8           8
                 9           9
                10          10
                11          11
                12          12
                13          13
                14          14
                15          15
                16          16
                17          17
                18          18
                19          19
                20          20
                21          21
                22          22
                23          23
                24          24
                25          25
                26          26
                27          27
                28          28
                29          29
                30          30
                31          31
                32          32
                33          33
                34          34
                35          35
                36          36
                37          37
                38          38
                39          39
                40          40
                41          41
                42          42
                43          43
                44          44
                45          45
                46          46
                47          47
                48          48
                49          49
                50          50
                51          51
                52          52
                53          53
                54          54
                55          55
                56          56
                57          57
                58          58
                59          59
                60          60
                61          61
                62          62
                63          63
                64          64
                65          65
                66          66

----------------------------------------------------------------------------------------



 KPOINTS: pymatgen v2020.8.13 with grid density = 

Automatic generation of k-mesh.
 Grid dimensions read from file:
 generate k-points for:    2    2    1

 Generating k-lattice:

  Cartesian coordinates                     Fractional coordinates (reciprocal lattice)
     0.059234796  0.000000000  0.000000000     0.500000000  0.000000000  0.000000000
     0.000000000  0.059234796  0.000000000     0.000000000  0.500000000  0.000000000
     0.000000000  0.000000000  0.046880702     0.000000000  0.000000000  1.000000000

  Length of vectors
     0.059234796  0.059234796  0.046880702

  Shift w.r.t. Gamma in fractional coordinates (k-lattice)
     0.000000000  0.000000000  0.000000000

 
 Subroutine IBZKPT returns following result:
 ===========================================
 
 Found      3 irreducible k-points:
 
 Following reciprocal coordinates:
            Coordinates               Weight
  0.000000  0.000000  0.000000      1.000000
  0.500000  0.000000  0.000000      2.000000
  0.500000  0.500000  0.000000      1.000000
 
 Following cartesian coordinates:
            Coordinates               Weight
  0.000000  0.000000  0.000000      1.000000
  0.059235  0.000000  0.000000      2.000000
  0.059235  0.059235  0.000000      1.000000
 
 
 Subroutine IBZKPT_HF returns following result:
 ==============================================
 
 Found      4 k-points in 1st BZ
 the following      4 k-points will be used (e.g. in the exchange kernel)
 Following reciprocal coordinates:   # in IRBZ
  0.000000  0.000000  0.000000    0.25000000   1 t-inv F
  0.500000  0.000000  0.000000    0.25000000   2 t-inv F
  0.500000  0.500000  0.000000    0.25000000   3 t-inv F
 -0.000000  0.500000  0.000000    0.25000000   2 t-inv F


--------------------------------------------------------------------------------------------------------




 Dimension of arrays:
   k-points           NKPTS =      3   k-points in BZ     NKDIM =      4   number of bands    NBANDS=    320
   number of dos      NEDOS =    301   number of ions     NIONS =     66
   non local maximal  LDIM  =      5   non local SUM 2l+1 LMDIM =     13
   total plane-waves  NPLWV = 373248
   max r-space proj   IRMAX =      1   max aug-charges    IRDMAX=   5039
   dimension x,y,z NGX =    54 NGY =   54 NGZ =  128
   dimension x,y,z NGXF=   108 NGYF=  108 NGZF=  256
   support grid    NGXF=   108 NGYF=  108 NGZF=  256
   ions per type =               1   1  32  32
   NGX,Y,Z   is equivalent  to a cutoff of  10.64, 10.64,  9.98 a.u.
   NGXF,Y,Z  is equivalent  to a cutoff of  21.27, 21.27, 19.95 a.u.

 SYSTEM =  MgO-rocksalt                            
 POSCAR =   C  O Mg  O                             

 Startparameter for this run:
   NWRITE =      2    write-flag & timer
   PREC   = normal    normal or accurate (medium, high low for compatibility)
   ISTART =      0    job   : 0-new  1-cont  2-samecut
   ICHARG =      2    charge: 1-file 2-atom 10-const
   ISPIN  =      1    spin polarized calculation?
   LNONCOLLINEAR =      F non collinear calculations
   LSORBIT =      F    spin-orbit coupling
   INIWAV =      1    electr: 0-lowe 1-rand  2-diag
   LASPH  =      T    aspherical Exc in radial PAW
 Electronic Relaxation 1
   ENCUT  =  600.0 eV  44.10 Ry    6.64 a.u.  16.86 16.86 42.60*2*pi/ulx,y,z
   ENINI  =  600.0     initial cutoff
   ENAUG  =  758.8 eV  augmentation charge cutoff
   NELM   =    200;   NELMIN=  8; NELMDL= -5     # of ELM steps 
   EDIFF  = 0.1E-05   stopping-criterion for ELM
   LREAL  =      F    real-space projection
   NLSPLINE    = F    spline interpolate recip. space projectors
   LCOMPAT=      F    compatible to vasp.4.4
   GGA_COMPAT  = T    GGA compatible to vasp.4.4-vasp.4.6
   LMAXPAW     = -100 max onsite density
   LMAXMIX     =    2 max onsite mixed and CHGCAR
   VOSKOWN=      0    Vosko Wilk Nusair interpolation
   ROPT   =    0.00000   0.00000   0.00000   0.00000
 Ionic relaxation
   EDIFFG = -.1E-01   stopping-criterion for IOM
   NSW    =      0    number of steps for IOM
   NBLOCK =      1;   KBLOCK =      1    inner block; outer block 
   IBRION =     -1    ionic relax: 0-MD 1-quasi-New 2-CG
   NFREE  =      0    steps in history (QN), initial steepest desc. (CG)
   ISIF   =      2    stress and relaxation
   IWAVPR =     10    prediction:  0-non 1-charg 2-wave 3-comb
   ISYM   =      2    0-nonsym 1-usesym 2-fastsym
   LCORR  =      T    Harris-Foulkes like correction to forces

   POTIM  = 0.5000    time-step for ionic-motion
   TEIN   =    0.0    initial temperature
   TEBEG  =    0.0;   TEEND  =   0.0 temperature during run
   SMASS  =  -3.00    Nose mass-parameter (am)
   estimated Nose-frequenzy (Omega)   =  0.10E-29 period in steps = 0.13E+47 mass=  -0.163E-26a.u.
   SCALEE = 1.0000    scale energy and forces
   NPACO  =    256;   APACO  = 10.0  distance and # of slots for P.C.
   PSTRESS=    0.0 pullay stress

  Mass of Ions in am
   POMASS =  12.01 16.00 24.30 16.00
  Ionic Valenz
   ZVAL   =   4.00  6.00  8.00  6.00
  Atomic Wigner-Seitz radii
   RWIGS  =  -1.00 -1.00 -1.00 -1.00
  virtual crystal weights 
   VCA    =   1.00  1.00  1.00  1.00
   NELECT =     458.0000    total number of electrons
   NUPDOWN=      -1.0000    fix difference up-down

 DOS related values:
   EMIN   =  10.00;   EMAX   =-10.00  energy-range for DOS
   EFERMI =   0.00
   ISMEAR =     0;   SIGMA  =   0.05  broadening in eV -4-tet -1-fermi 0-gaus

 Electronic relaxation 2 (details)
   IALGO  =     58    algorithm
   LDIAG  =      T    sub-space diagonalisation (order eigenvalues)
   LSUBROT=      F    optimize rotation matrix (better conditioning)
   TURBO    =      0    0=normal 1=particle mesh
   IRESTART =      0    0=no restart 2=restart with 2 vectors
   NREBOOT  =      0    no. of reboots
   NMIN     =      0    reboot dimension
   EREF     =   0.00    reference energy to select bands
   IMIX   =      4    mixing-type and parameters
     AMIX     =   0.40;   BMIX     =  1.00
     AMIX_MAG =   1.60;   BMIX_MAG =  1.00
     AMIN     =   0.10
     WC   =   100.;   INIMIX=   1;  MIXPRE=   1;  MAXMIX= -45

 Intra band minimization:
   WEIMIN = 0.0000     energy-eigenvalue tresh-hold
   EBREAK =  0.78E-09  absolut break condition
   DEPER  =   0.30     relativ break condition  

   TIME   =   0.40     timestep for ELM

  volume/ion in A,a.u.               =      23.03       155.40
  Fermi-wavevector in a.u.,A,eV,Ry     =   1.097571  2.074108 16.390423  1.204662
  Thomas-Fermi vector in A             =   2.233933

 Write flags
   LWAVE        =      F    write WAVECAR
   LDOWNSAMPLE  =      F    k-point downsampling of WAVECAR
   LCHARG       =      F    write CHGCAR
   LVTOT        =      F    write LOCPOT, total local potential
   LVHAR        =      F    write LOCPOT, Hartree potential only
   LELF         =      F    write electronic localiz. function (ELF)
   LORBIT       =      0    0 simple, 1 ext, 2 COOP (PROOUT), +10 PAW based schemes


 Dipole corrections
   LMONO  =      F    monopole corrections only (constant potential shift)
   LDIPOL =      T    correct potential (dipole corrections)
   IDIPOL =      3    1-x, 2-y, 3-z, 4-all directions 
   EPSILON=  1.0000000 bulk dielectric constant

 Exchange correlation treatment:
   GGA     =    PE    GGA type
   LEXCH   =     8    internal setting for exchange type
   LIBXC   =     F    Libxc                    
   VOSKOWN =     0    Vosko Wilk Nusair interpolation
   EXXOEP  =     0    0=HF, 1=EXX-LHF (local Hartree Fock) 2=EXX OEP
   LHFCALC =     T    Hartree Fock is set to
   LSYMGRAD=     F    symmetrize gradient (conserves proper symmetry)
   PRECFOCK=normal    Normal, Fast or Accurate (Low or Medium for compatibility)
   LRHFCALC=     F    long range Hartree Fock
   LRSCOR  =     F    long range correlation only (use DFT for short range part)
   LTHOMAS =     F    Thomas Fermi screening in HF
   LMODELHF=     F    short range full HF, long range fraction AEXX
   LFOCKACE=     T    use Adeptively-Compressed-Exchange operator
   ENCUT4O =  -1.0   cutoff for four orbital integrals eV
   LMAXFOCK=     4    L truncation for augmentation on plane wave grid
   LMAXFOCKAE=  -1    L truncation for all-electron charge restoration on plane wave grid
   NMAXFOCKAE=   1    number of basis functions for all-electron charge restoration
   LFOCKAEDFT=     F  apply the AE augmentation even for DFT
   NKREDX  =     1    reduce k-point grid by
   NKREDY  =     1    reduce k-point grid by
   NKREDZ  =     1    reduce k-point grid by
   SHIFTRED=     F    shift reduced grid of Gamma
   HFKIDENT=     F    idential grid for each k-point
   ODDONLY =     F    use only odd q-grid points
   EVENONLY=     F    use only even q-grid points
   HFALPHA =   -1.0000 decay constant for conv. correction
   MCALPHA =    0.0000 extent of test-charge in conv. correction in multipole expansion
   AEXX    =    0.2500 exact exchange contribution
   HFSCREEN=    0.0000 screening length (either q_TF or 0.3 A-1)
   HFSCREENC=   0.0000 screening length for correlation (either q_TF or 0.3 A-1)
   HFRCUT  =    0.0000 spherical cutoff for potential kernel
   ALDAX   =    0.7500 LDA exchange part
   AGGAX   =    0.7500 GGA exchange part
   ALDAC   =    1.0000 LDA correlation
   AGGAC   =    1.0000 GGA correlation
   ENCUTFOCK=  -1.0 apply spherical cutoff to Coloumb kernel
   NBANDSGWLOW=     1    first orbital included in HF term
   NBLOCK_FOCK=    64    blocking factor in FOCK_ACC

 Linear response parameters
   LEPSILON=     F    determine dielectric tensor
   LRPA    =     F    only Hartree local field effects (RPA)
   LNABLA  =     F    use nabla operator in PAW spheres
   LVEL    =     F    velocity operator in full k-point grid
   CSHIFT  =0.1000    complex shift for real part using Kramers Kronig
   OMEGAMAX=  -1.0    maximum frequency
   DEG_THRESHOLD= 0.2000000E-02 threshold for treating states as degnerate
   RTIME   =   -0.100 relaxation time in fs
  (WPLASMAI=    0.000 imaginary part of plasma frequency in eV, 0.658/RTIME)
   DFIELD  = 0.0000000 0.0000000 0.0000000 field for delta impulse in time

  Optional k-point grid parameters
   LKPOINTS_OPT  =     F    use optional k-point grid
   KPOINTS_OPT_MODE=     1    mode for optional k-point grid

 Orbital magnetization related:
   ORBITALMAG=     F  switch on orbital magnetization
   LCHIMAG   =     F  perturbation theory with respect to B field
   DQ        =  0.001000  dq finite difference perturbation B field
   LLRAUG    =     F  two centre corrections for induced B field



--------------------------------------------------------------------------------------------------------


 Static calculation
 charge density and potential will be updated during run
 non-spin polarized calculation
 Conjugate gradient for all bands (Freysoldt, et al. PRB 79, 241103 (2009))
 preconditioned conjugated gradient                                        
 perform sub-space diagonalisation
    before iterative eigenvector-optimisation
 modified Broyden-mixing scheme, WC =      100.0
 initial mixing is a Kerker type mixing with AMIX =  0.4000 and BMIX =      1.0000
 Hartree-type preconditioning will be used
 using additional bands           91
 reciprocal scheme for non local part
 use partial core corrections
 no Harris-corrections to forces 
 use gradient corrections 
 use of overlap-Matrix (Vanderbilt PP)
 Gauss-broadening in eV      SIGMA  =   0.05


--------------------------------------------------------------------------------------------------------


  energy-cutoff  :      600.00
  volume of cell :     1519.82
      direct lattice vectors                 reciprocal lattice vectors
     8.440984654  0.000000000  0.000000000     0.118469591  0.000000000  0.000000000
     0.000000000  8.440984654  0.000000000     0.000000000  0.118469591  0.000000000
     0.000000000  0.000000000 21.330738491     0.000000000  0.000000000  0.046880702

  length of vectors
     8.440984654  8.440984654 21.330738491     0.118469591  0.118469591  0.046880702



 k-points in units of 2pi/SCALE and weight: pymatgen v2020.8.13 with grid density = 
   0.00000000  0.00000000  0.00000000       0.250
   0.05923480  0.00000000  0.00000000       0.500
   0.05923480  0.05923480  0.00000000       0.250

 k-points in reciprocal lattice and weights: pymatgen v2020.8.13 with grid density = 
   0.00000000  0.00000000  0.00000000       0.250
   0.50000000  0.00000000  0.00000000       0.500
   0.50000000  0.50000000  0.00000000       0.250

 position of ions in fractional coordinates (direct lattice) 
   0.50000000  0.50000000  0.77016275
   0.50000000  0.50000000  0.82392647
   0.00000000  0.75000000  0.35160527
   0.25000000  0.00000000  0.35160527
   0.00000000  0.00000000  0.45053509
   0.25000000  0.75000000  0.45053509
   0.00000000  0.74993927  0.55008324
   0.25006073  0.00000000  0.55008324
   0.00000000  0.00000000  0.64874531
   0.24985833  0.75014167  0.64856955
   0.00000000  0.25000000  0.35160527
   0.25000000  0.50000000  0.35160527
   0.00000000  0.50000000  0.45053509
   0.25000000  0.25000000  0.45053509
   0.00000000  0.25006073  0.55008324
   0.25037838  0.50000000  0.55021952
   0.00000000  0.50000000  0.64861528
   0.24985833  0.24985833  0.64856955
   0.50000000  0.75000000  0.35160527
   0.75000000  0.00000000  0.35160527
   0.50000000  0.00000000  0.45053509
   0.75000000  0.75000000  0.45053509
   0.50000000  0.74962162  0.55021952
   0.74993927  0.00000000  0.55008324
   0.50000000  0.00000000  0.64861528
   0.75014167  0.75014167  0.64856955
   0.50000000  0.25000000  0.35160527
   0.75000000  0.50000000  0.35160527
   0.50000000  0.50000000  0.45053509
   0.75000000  0.25000000  0.45053509
   0.50000000  0.25037838  0.55021952
   0.74962162  0.50000000  0.55021952
   0.50000000  0.50000000  0.65061696
   0.75014167  0.24985833  0.64856955
   0.00000000  0.75000000  0.45053509
   0.25000000  0.00000000  0.45053509
   0.00000000  0.00000000  0.35160527
   0.25000000  0.75000000  0.35160527
   0.00000000  0.75021853  0.65097926
   0.24978147  0.00000000  0.65097926
   0.00000000  0.00000000  0.54980989
   0.24994577  0.75005423  0.54985911
   0.00000000  0.25000000  0.45053509
   0.25000000  0.50000000  0.45053509
   0.00000000  0.50000000  0.35160527
   0.25000000  0.25000000  0.35160527
   0.00000000  0.24978147  0.65097926
   0.24882271  0.50000000  0.65088287
   0.00000000  0.50000000  0.54976267
   0.24994577  0.24994577  0.54985911
   0.50000000  0.75000000  0.45053509
   0.75000000  0.00000000  0.45053509
   0.50000000  0.00000000  0.35160527
   0.75000000  0.75000000  0.35160527
   0.50000000  0.75117729  0.65088287
   0.75021853  0.00000000  0.65097926
   0.50000000  0.00000000  0.54976267
   0.75005423  0.75005423  0.54985911
   0.50000000  0.25000000  0.45053509
   0.75000000  0.50000000  0.45053509
   0.50000000  0.50000000  0.35160527
   0.75000000  0.25000000  0.35160527
   0.50000000  0.24882271  0.65088287
   0.75117729  0.50000000  0.65088287
   0.50000000  0.50000000  0.55023136
   0.75005423  0.24994577  0.54985911

 position of ions in cartesian coordinates  (Angst):
   4.22049233  4.22049233 16.42814023
   4.22049233  4.22049233 17.57496005
   0.00000000  6.33073849  7.50000000
   2.11024616  0.00000000  7.50000000
   0.00000000  0.00000000  9.61024616
   2.11024616  6.33073849  9.61024616
   0.00000000  6.33022585 11.73368172
   2.11075880  0.00000000 11.73368172
   0.00000000  0.00000000 13.83821654
   2.10905031  6.33193435 13.83446740
   0.00000000  2.11024616  7.50000000
   2.11024616  4.22049233  7.50000000
   0.00000000  4.22049233  9.61024616
   2.11024616  2.11024616  9.61024616
   0.00000000  2.11075880 11.73368172
   2.11344006  4.22049233 11.73658877
   0.00000000  4.22049233 13.83544293
   2.10905031  2.10905031 13.83446740
   4.22049233  6.33073849  7.50000000
   6.33073849  0.00000000  7.50000000
   4.22049233  0.00000000  9.61024616
   6.33073849  6.33073849  9.61024616
   4.22049233  6.32754460 11.73658877
   6.33022585  0.00000000 11.73368172
   4.22049233  0.00000000 13.83544293
   6.33193435  6.33193435 13.83446740
   4.22049233  2.11024616  7.50000000
   6.33073849  4.22049233  7.50000000
   4.22049233  4.22049233  9.61024616
   6.33073849  2.11024616  9.61024616
   4.22049233  2.11344006 11.73658877
   6.32754460  4.22049233 11.73658877
   4.22049233  4.22049233 13.87814023
   6.33193435  2.10905031 13.83446740
   0.00000000  6.33073849  9.61024616
   2.11024616  0.00000000  9.61024616
   0.00000000  0.00000000  7.50000000
   2.11024616  6.33073849  7.50000000
   0.00000000  6.33258312 13.88586825
   2.10840153  0.00000000 13.88586825
   0.00000000  0.00000000 11.72785099
   2.10978841  6.33119624 11.72890095
   0.00000000  2.11024616  9.61024616
   2.11024616  4.22049233  9.61024616
   0.00000000  4.22049233  7.50000000
   2.11024616  2.11024616  7.50000000
   0.00000000  2.10840153 13.88586825
   2.10030867  4.22049233 13.88381232
   0.00000000  4.22049233 11.72684365
   2.10978841  2.10978841 11.72890095
   4.22049233  6.33073849  9.61024616
   6.33073849  0.00000000  9.61024616
   4.22049233  0.00000000  7.50000000
   6.33073849  6.33073849  7.50000000
   4.22049233  6.34067598 13.88381232
   6.33258312  0.00000000 13.88586825
   4.22049233  0.00000000 11.72684365
   6.33119624  6.33119624 11.72890095
   4.22049233  2.11024616  9.61024616
   6.33073849  4.22049233  9.61024616
   4.22049233  4.22049233  7.50000000
   6.33073849  2.11024616  7.50000000
   4.22049233  2.10030867 13.88381232
   6.34067598  4.22049233 13.88381232
   4.22049233  4.22049233 11.73684118
   6.33119624  2.10978841 11.72890095



--------------------------------------------------------------------------------------------------------


 k-point   1 :   0.0000 0.0000 0.0000  plane waves:   50745
 k-point   2 :   0.5000 0.0000 0.0000  plane waves:   50798
 k-point   3 :   0.5000 0.5000 0.0000  plane waves:   50752

 maximum and minimum number of plane-waves per node :      6394     6276

 maximum number of plane-waves:     50798
 maximum index in each direction: 
   IXMAX=   16   IYMAX=   16   IZMAX=   42
   IXMIN=  -17   IYMIN=  -17   IZMIN=  -42


 parallel 3D FFT for wavefunctions:
    minimum data exchange during FFTs selected (reduces bandwidth)
 parallel 3D FFT for charge:
    minimum data exchange during FFTs selected (reduces bandwidth)


 Radii for the augmentation spheres in the non-local exchange
 for species   1 augmentation radius   0.874 (default was   0.699)
       energy cutoff for augmentation   2400.0
 for species   2 augmentation radius   0.902 (default was   0.722)
       energy cutoff for augmentation   2400.0
 for species   3 augmentation radius   1.037 (default was   0.829)
       energy cutoff for augmentation   2400.0
 for species   4 augmentation radius   0.902 (default was   0.722)
       energy cutoff for augmentation   2400.0

 real space projection operators:
  total allocation   :       8961.33 KBytes
  max/ min on nodes  :       1251.34        827.61

 Maximum index for augmentation-charges in exchange          164
  SETUP_FOCK is finished

 total amount of memory used by VASP MPI-rank0    60467. kBytes
=======================================================================

   base      :      30000. kBytes
   nonl-proj :      14893. kBytes
   fftplans  :       3932. kBytes
   grid      :       3944. kBytes
   one-center:         73. kBytes
   HF        :        101. kBytes
   nonlr-proj:       2778. kBytes
   wavefun   :       4746. kBytes

     INWAV:  cpu time      0.0001: real time      0.0004
 Broyden mixing: mesh for mixing (old mesh)
   NGX = 33   NGY = 33   NGZ = 85
  (NGX  =108   NGY  =108   NGZ  =256)
  gives a total of  92565 points

 initial charge density was supplied:
 charge density of overlapping atoms calculated
 number of electron     458.0000000 magnetization 
 keeping initial charge density in first step


--------------------------------------------------------------------------------------------------------


 Maximum index for augmentation-charges          334 (set IRDMAX)


--------------------------------------------------------------------------------------------------------


    FEWALD:  cpu time      0.0029: real time      0.0029


--------------------------------------- Iteration      1(   1)  ---------------------------------------


    POTLOK:  cpu time      0.0666: real time      0.0676
    SETDIJ:  cpu time      0.1933: real time      0.1933
    TRIAL :  cpu time     18.7006: real time     18.7964
    CORREC:  cpu time      0.0012: real time      0.0014
    --------------------------------------------
      LOOP:  cpu time     18.9634: real time     19.1189

 eigenvalue-minimisations  :  2304
 total energy-change (2. order) : 0.5635574E+03  (-0.3099440E+05)
 number of electron     458.0000000 magnetization 
 augmentation part      458.0000000 magnetization 

 DIPCOR: dipole corrections for dipol
 direction  3 min pos     1,
 dipolmoment           0.000000      0.000000     -0.000330 electrons x Angstroem
 Tr[quadrupol]     -6318.707831

 energy correction for charged system         0.000000 eV
 dipol+quadrupol energy correction           -0.000000 eV
 added-field ion interaction          0.002714 eV  (added to PSCEN)


 Free energy of the ion-electron system (eV)
  ---------------------------------------------------
  alpha Z        PSCENC =       907.96681765
  Ewald energy   TEWEN  =    136893.95856843
  -Hartree energ DENC   =   -172993.43103778
  -exchange      EXHF   =         0.00000000
  -V(xc)+E(xc)   XCENC  =      1789.12810195
  PAW double counting   =     32310.01086261   -39107.06083553
  entropy T*S    EENTRO =        -0.01315031
  eigenvalues    EBANDS =     -7344.52286446
  atomic energy  EATOM  =     48107.52088990
  ---------------------------------------------------
  free energy    TOTEN  =       563.55735245 eV

  energy without entropy =      563.57050277  energy(sigma->0) =      563.56392761
  exchange ACFDT corr.  =         0.00000000  see jH, gK, PRB 81, 115126


--------------------------------------------------------------------------------------------------------




--------------------------------------- Iteration      1(   2)  ---------------------------------------


    TRIAL :  cpu time      2.8266: real time      2.8269
    CORREC:  cpu time      0.0002: real time      0.0002
    --------------------------------------------
      LOOP:  cpu time      2.8343: real time      2.8417

 eigenvalue-minimisations  :  2304
 total energy-change (2. order) :-0.4307022E+04  (-0.4235331E+04)
 number of electron     458.0000000 magnetization 
 augmentation part      458.0000000 magnetization 

 DIPCOR: dipole corrections for dipol
 direction  3 min pos     1,
 dipolmoment           0.000000      0.000000     -0.000330 electrons x Angstroem
 Tr[quadrupol]     -6318.707831

 energy correction for charged system         0.000000 eV
 dipol+quadrupol energy correction           -0.000000 eV
 added-field ion interaction          0.002714 eV  (added to PSCEN)


 Free energy of the ion-electron system (eV)
  ---------------------------------------------------
  alpha Z        PSCENC =       907.96681765
  Ewald energy   TEWEN  =    136893.95856843
  -Hartree energ DENC   =   -172993.43103778
  -exchange      EXHF   =         0.00000000
  -V(xc)+E(xc)   XCENC  =      1789.12810195
  PAW double counting   =     32310.01086261   -39107.06083553
  entropy T*S    EENTRO =        -0.00000000
  eigenvalues    EBANDS =    -11651.55754512
  atomic energy  EATOM  =     48107.52088990
  ---------------------------------------------------
  free energy    TOTEN  =     -3743.46417789 eV

  energy without entropy =    -3743.46417789  energy(sigma->0) =    -3743.46417789
  exchange ACFDT corr.  =         0.00000000  see jH, gK, PRB 81, 115126


--------------------------------------------------------------------------------------------------------




--------------------------------------- Iteration      1(   3)  ---------------------------------------


    TRIAL :  cpu time      3.0100: real time      3.0102
    CORREC:  cpu time      0.0003: real time      0.0003
    --------------------------------------------
      LOOP:  cpu time      3.0163: real time      3.0250

 eigenvalue-minimisations  :  2304
 total energy-change (2. order) :-0.3176802E+03  (-0.3155121E+03)
 number of electron     458.0000000 magnetization 
 augmentation part      458.0000000 magnetization 

 DIPCOR: dipole corrections for dipol
 direction  3 min pos     1,
 dipolmoment           0.000000      0.000000     -0.000330 electrons x Angstroem
 Tr[quadrupol]     -6318.707831

 energy correction for charged system         0.000000 eV
 dipol+quadrupol energy correction           -0.000000 eV
 added-field ion interaction          0.002714 eV  (added to PSCEN)


 Free energy of the ion-electron system (eV)
  ---------------------------------------------------
  alpha Z        PSCENC =       907.96681765
  Ewald energy   TEWEN  =    136893.95856843
  -Hartree energ DENC   =   -172993.43103778
  -exchange      EXHF   =         0.00000000
  -V(xc)+E(xc)   XCENC  =      1789.12810195
  PAW double counting   =     32310.01086261   -39107.06083553
  entropy T*S    EENTRO =        -0.00000000
  eigenvalues    EBANDS =    -11969.23776364
  atomic energy  EATOM  =     48107.52088990
  ---------------------------------------------------
  free energy    TOTEN  =     -4061.14439641 eV

  energy without entropy =    -4061.14439641  energy(sigma->0) =    -4061.14439641
  exchange ACFDT corr.  =         0.00000000  see jH, gK, PRB 81, 115126


--------------------------------------------------------------------------------------------------------




--------------------------------------- Iteration      1(   4)  ---------------------------------------


    TRIAL :  cpu time      2.9023: real time      2.9024
    CORREC:  cpu time      0.0003: real time      0.0003
    --------------------------------------------
      LOOP:  cpu time      2.9168: real time      2.9172

 eigenvalue-minimisations  :  2304
 total energy-change (2. order) :-0.6221609E+01  (-0.6214900E+01)
 number of electron     458.0000000 magnetization 
 augmentation part      458.0000000 magnetization 

 DIPCOR: dipole corrections for dipol
 direction  3 min pos     1,
 dipolmoment           0.000000      0.000000     -0.000330 electrons x Angstroem
 Tr[quadrupol]     -6318.707831

 energy correction for charged system         0.000000 eV
 dipol+quadrupol energy correction           -0.000000 eV
 added-field ion interaction          0.002714 eV  (added to PSCEN)


 Free energy of the ion-electron system (eV)
  ---------------------------------------------------
  alpha Z        PSCENC =       907.96681765
  Ewald energy   TEWEN  =    136893.95856843
  -Hartree energ DENC   =   -172993.43103778
  -exchange      EXHF   =         0.00000000
  -V(xc)+E(xc)   XCENC  =      1789.12810195
  PAW double counting   =     32310.01086261   -39107.06083553
  entropy T*S    EENTRO =        -0.00000000
  eigenvalues    EBANDS =    -11975.45937240
  atomic energy  EATOM  =     48107.52088990
  ---------------------------------------------------
  free energy    TOTEN  =     -4067.36600517 eV

  energy without entropy =    -4067.36600517  energy(sigma->0) =    -4067.36600517
  exchange ACFDT corr.  =         0.00000000  see jH, gK, PRB 81, 115126


--------------------------------------------------------------------------------------------------------




--------------------------------------- Iteration      1(   5)  ---------------------------------------


    POTLOK:  cpu time      0.0435: real time      0.0435
    SETDIJ:  cpu time      0.1896: real time      0.1896
    TRIAL :  cpu time     71.9841: real time     71.9932
    CORREC:  cpu time      0.0003: real time      0.0003
    CHARGE:  cpu time      0.0648: real time      0.0652
    --------------------------------------------
      LOOP:  cpu time     72.2880: real time     72.3065

 eigenvalue-minimisations  :  2304
 total energy-change (2. order) : 0.3506841E+04  (-0.2336189E+01)
 number of electron     457.9999369 magnetization 
 augmentation part      160.4810207 magnetization 

 DIPCOR: dipole corrections for dipol
 direction  3 min pos     1,
 dipolmoment           0.000000      0.000000     -0.000330 electrons x Angstroem
 Tr[quadrupol]     -6318.707831

 energy correction for charged system         0.000000 eV
 dipol+quadrupol energy correction           -0.000000 eV
 added-field ion interaction          0.002714 eV  (added to PSCEN)


 Free energy of the ion-electron system (eV)
  ---------------------------------------------------
  alpha Z        PSCENC =       907.96681765
  Ewald energy   TEWEN  =    136893.95856843
  -Hartree energ DENC   =   -172993.43103778
  -exchange      EXHF   =      1704.38451624
  -V(xc)+E(xc)   XCENC  =      1368.19437181
  PAW double counting   =     32705.07187869   -36310.02099081
  entropy T*S    EENTRO =        -0.00000000
  eigenvalues    EBANDS =    -12944.16963607
  atomic energy  EATOM  =     48107.52088990
  ---------------------------------------------------
  free energy    TOTEN  =      -560.52462193 eV

  energy without entropy =     -560.52462193  energy(sigma->0) =     -560.52462193
  exchange ACFDT corr.  =         0.00000000  see jH, gK, PRB 81, 115126


--------------------------------------------------------------------------------------------------------




--------------------------------------- Iteration      1(   6)  ---------------------------------------


    POTLOK:  cpu time      0.0445: real time      0.0445
    SETDIJ:  cpu time      0.1901: real time      0.1901
    TRIAL :  cpu time     69.4794: real time     69.4889
    CORREC:  cpu time     69.2258: real time     69.2342
    CHARGE:  cpu time      0.0542: real time      0.0542
    --------------------------------------------
      LOOP:  cpu time    139.0125: real time    139.0308

 eigenvalue-minimisations  :     0
 total energy-change (2. order) : 0.2107932E+03  (-0.1127104E+03)
 number of electron     457.9999257 magnetization 
 augmentation part      156.9929339 magnetization 

 DIPCOR: dipole corrections for dipol
 direction  3 min pos     1,
 dipolmoment           0.000000      0.000000      0.322525 electrons x Angstroem
 Tr[quadrupol]     -6352.176943

 energy correction for charged system         0.000000 eV
 dipol+quadrupol energy correction           -0.006193 eV
 added-field ion interaction         -2.653390 eV  (added to PSCEN)


 Free energy of the ion-electron system (eV)
  ---------------------------------------------------
  alpha Z        PSCENC =       903.24875649
  Ewald energy   TEWEN  =    136893.95856843
  -Hartree energ DENC   =   -177035.08501637
  -exchange      EXHF   =      1707.48210565
  -V(xc)+E(xc)   XCENC  =      1473.20283979
  PAW double counting   =     37950.32570954   -41520.21828857
  entropy T*S    EENTRO =        -0.00000000
  eigenvalues    EBANDS =     -8830.16700148
  atomic energy  EATOM  =     48107.52088990
  ---------------------------------------------------
  free energy    TOTEN  =      -349.73143662 eV

  energy without entropy =     -349.73143662  energy(sigma->0) =     -349.73143662
  exchange ACFDT corr.  =         0.00000000  see jH, gK, PRB 81, 115126


--------------------------------------------------------------------------------------------------------




--------------------------------------- Iteration      1(   7)  ---------------------------------------


    POTLOK:  cpu time      0.0436: real time      0.0436
    SETDIJ:  cpu time      0.1899: real time      0.1899
    TRIAL :  cpu time     69.0634: real time     69.0714
    CORREC:  cpu time     69.0667: real time     69.0745
    CHARGE:  cpu time      0.0568: real time      0.0568
    --------------------------------------------
      LOOP:  cpu time    138.4297: real time    138.4552

 eigenvalue-minimisations  :     0
 total energy-change (2. order) :-0.1133018E+03  (-0.9218885E+01)
 number of electron     457.9999242 magnetization 
 augmentation part      155.1253555 magnetization 

 DIPCOR: dipole corrections for dipol
 direction  3 min pos     1,
 dipolmoment           0.000000      0.000000      0.258715 electrons x Angstroem
 Tr[quadrupol]     -6361.867877

 energy correction for charged system         0.000000 eV
 dipol+quadrupol energy correction           -0.003985 eV
 added-field ion interaction         -2.128431 eV  (added to PSCEN)


 Free energy of the ion-electron system (eV)
  ---------------------------------------------------
  alpha Z        PSCENC =       905.02659150
  Ewald energy   TEWEN  =    136893.95856843
  -Hartree energ DENC   =   -175032.91456834
  -exchange      EXHF   =      1642.88772607
  -V(xc)+E(xc)   XCENC  =      1415.78536970
  PAW double counting   =     36717.76585180   -40338.80789740
  entropy T*S    EENTRO =        -0.00000000
  eigenvalues    EBANDS =    -10774.25573625
  atomic energy  EATOM  =     48107.52088990
  ---------------------------------------------------
  free energy    TOTEN  =      -463.03320457 eV

  energy without entropy =     -463.03320457  energy(sigma->0) =     -463.03320457
  exchange ACFDT corr.  =         0.00000000  see jH, gK, PRB 81, 115126


--------------------------------------------------------------------------------------------------------




--------------------------------------- Iteration      1(   8)  ---------------------------------------


    POTLOK:  cpu time      0.0431: real time      0.0431
    SETDIJ:  cpu time      0.1899: real time      0.1899
    TRIAL :  cpu time     69.2079: real time     69.2170
    CORREC:  cpu time     69.1358: real time     69.1428
    CHARGE:  cpu time      0.0556: real time      0.0556
    --------------------------------------------
      LOOP:  cpu time    138.6519: real time    138.6683

 eigenvalue-minimisations  :     0
 total energy-change (2. order) :-0.9271587E+01  (-0.6079644E+01)
 number of electron     457.9999222 magnetization 
 augmentation part      155.1885078 magnetization 

 DIPCOR: dipole corrections for dipol
 direction  3 min pos     1,
 dipolmoment           0.000000      0.000000      0.144823 electrons x Angstroem
 Tr[quadrupol]     -6362.860998

 energy correction for charged system         0.000000 eV
 dipol+quadrupol energy correction           -0.001249 eV
 added-field ion interaction         -1.191448 eV  (added to PSCEN)


 Free energy of the ion-electron system (eV)
  ---------------------------------------------------
  alpha Z        PSCENC =       906.16856975
  Ewald energy   TEWEN  =    136893.95856843
  -Hartree energ DENC   =   -175065.30517681
  -exchange      EXHF   =      1635.51232480
  -V(xc)+E(xc)   XCENC  =      1408.29766028
  PAW double counting   =     36636.72628372   -40199.00637411
  entropy T*S    EENTRO =        -0.00000000
  eigenvalues    EBANDS =    -10796.17753728
  atomic energy  EATOM  =     48107.52088990
  ---------------------------------------------------
  free energy    TOTEN  =      -472.30479131 eV

  energy without entropy =     -472.30479131  energy(sigma->0) =     -472.30479131
  exchange ACFDT corr.  =        -0.00000000  see jH, gK, PRB 81, 115126


--------------------------------------------------------------------------------------------------------




--------------------------------------- Iteration      1(   9)  ---------------------------------------


    POTLOK:  cpu time      0.0435: real time      0.0435
    SETDIJ:  cpu time      0.1902: real time      0.1902
    TRIAL :  cpu time     69.0449: real time     69.0508
    CORREC:  cpu time     69.2854: real time     69.2918
    CHARGE:  cpu time      0.0569: real time      0.0570
    --------------------------------------------
      LOOP:  cpu time    138.6315: real time    138.6526

 eigenvalue-minimisations  :     0
 total energy-change (2. order) :-0.5962696E+01  (-0.3093546E+01)
 number of electron     457.9999219 magnetization 
 augmentation part      155.1492282 magnetization 

 DIPCOR: dipole corrections for dipol
 direction  3 min pos     1,
 dipolmoment           0.000000      0.000000      0.077840 electrons x Angstroem
 Tr[quadrupol]     -6356.321565

 energy correction for charged system         0.000000 eV
 dipol+quadrupol energy correction           -0.000361 eV
 added-field ion interaction         -0.640387 eV  (added to PSCEN)


 Free energy of the ion-electron system (eV)
  ---------------------------------------------------
  alpha Z        PSCENC =       907.11159436
  Ewald energy   TEWEN  =    136893.95856843
  -Hartree energ DENC   =   -174973.22885527
  -exchange      EXHF   =      1632.15714170
  -V(xc)+E(xc)   XCENC  =      1406.63225849
  PAW double counting   =     36525.12479801   -40123.29191511
  entropy T*S    EENTRO =        -0.00000000
  eigenvalues    EBANDS =    -10854.25196738
  atomic energy  EATOM  =     48107.52088990
  ---------------------------------------------------
  free energy    TOTEN  =      -478.26748688 eV

  energy without entropy =     -478.26748688  energy(sigma->0) =     -478.26748688
  exchange ACFDT corr.  =         0.00000000  see jH, gK, PRB 81, 115126


--------------------------------------------------------------------------------------------------------




--------------------------------------- Iteration      1(  10)  ---------------------------------------


    POTLOK:  cpu time      0.0428: real time      0.0428
    SETDIJ:  cpu time      0.1902: real time      0.1902
    TRIAL :  cpu time     69.1468: real time     69.1568
    CORREC:  cpu time     69.2297: real time     69.2340
    CHARGE:  cpu time      0.0553: real time      0.0553
    --------------------------------------------
      LOOP:  cpu time    138.6836: real time    138.6979

 eigenvalue-minimisations  :     0
 total energy-change (2. order) :-0.3116571E+01  (-0.1104087E+01)
 number of electron     457.9999226 magnetization 
 augmentation part      155.0084571 magnetization 

 DIPCOR: dipole corrections for dipol
 direction  3 min pos     1,
 dipolmoment           0.000000      0.000000      0.103282 electrons x Angstroem
 Tr[quadrupol]     -6353.330874

 energy correction for charged system         0.000000 eV
 dipol+quadrupol energy correction           -0.000635 eV
 added-field ion interaction         -0.849693 eV  (added to PSCEN)


 Free energy of the ion-electron system (eV)
  ---------------------------------------------------
  alpha Z        PSCENC =       907.29945390
  Ewald energy   TEWEN  =    136893.95856843
  -Hartree energ DENC   =   -174770.24823585
  -exchange      EXHF   =      1628.20879194
  -V(xc)+E(xc)   XCENC  =      1404.37013323
  PAW double counting   =     36362.74501593   -39970.37735925
  entropy T*S    EENTRO =        -0.00000000
  eigenvalues    EBANDS =    -11044.86131579
  atomic energy  EATOM  =     48107.52088990
  ---------------------------------------------------
  free energy    TOTEN  =      -481.38405756 eV

  energy without entropy =     -481.38405756  energy(sigma->0) =     -481.38405756
  exchange ACFDT corr.  =        -0.00000000  see jH, gK, PRB 81, 115126


--------------------------------------------------------------------------------------------------------




--------------------------------------- Iteration      1(  11)  ---------------------------------------


    POTLOK:  cpu time      0.0418: real time      0.0418
    SETDIJ:  cpu time      0.1930: real time      0.1930
    TRIAL :  cpu time     69.0984: real time     69.1048
    CORREC:  cpu time     69.3051: real time     69.3116
    CHARGE:  cpu time      0.0531: real time      0.0531
    --------------------------------------------
      LOOP:  cpu time    138.7007: real time    138.7231

 eigenvalue-minimisations  :     0
 total energy-change (2. order) :-0.1108816E+01  (-0.4378720E+00)
 number of electron     457.9999232 magnetization 
 augmentation part      155.1116949 magnetization 

 DIPCOR: dipole corrections for dipol
 direction  3 min pos     1,
 dipolmoment           0.000000      0.000000      0.126817 electrons x Angstroem
 Tr[quadrupol]     -6353.718177

 energy correction for charged system         0.000000 eV
 dipol+quadrupol energy correction           -0.000957 eV
 added-field ion interaction         -1.043313 eV  (added to PSCEN)


 Free energy of the ion-electron system (eV)
  ---------------------------------------------------
  alpha Z        PSCENC =       907.15369067
  Ewald energy   TEWEN  =    136893.95856843
  -Hartree energ DENC   =   -174652.84240073
  -exchange      EXHF   =      1626.08539253
  -V(xc)+E(xc)   XCENC  =      1403.01324170
  PAW double counting   =     36268.97053690   -39865.01922774
  entropy T*S    EENTRO =        -0.00000000
  eigenvalues    EBANDS =    -11171.33356508
  atomic energy  EATOM  =     48107.52088990
  ---------------------------------------------------
  free energy    TOTEN  =      -482.49287340 eV

  energy without entropy =     -482.49287340  energy(sigma->0) =     -482.49287340
  exchange ACFDT corr.  =        -0.00000000  see jH, gK, PRB 81, 115126


--------------------------------------------------------------------------------------------------------




--------------------------------------- Iteration      1(  12)  ---------------------------------------


    POTLOK:  cpu time      0.0398: real time      0.0398
    SETDIJ:  cpu time      0.1897: real time      0.1897
    TRIAL :  cpu time     69.1648: real time     69.1707
    CORREC:  cpu time     69.2176: real time     69.2242
    CHARGE:  cpu time      0.0556: real time      0.0556
    --------------------------------------------
      LOOP:  cpu time    138.6825: real time    138.6953

 eigenvalue-minimisations  :     0
 total energy-change (2. order) :-0.4378164E+00  (-0.1834487E+00)
 number of electron     457.9999235 magnetization 
 augmentation part      155.3077950 magnetization 

 DIPCOR: dipole corrections for dipol
 direction  3 min pos     1,
 dipolmoment           0.000000      0.000000      0.144252 electrons x Angstroem
 Tr[quadrupol]     -6354.243595

 energy correction for charged system         0.000000 eV
 dipol+quadrupol energy correction           -0.001239 eV
 added-field ion interaction         -1.186748 eV  (added to PSCEN)


 Free energy of the ion-electron system (eV)
  ---------------------------------------------------
  alpha Z        PSCENC =       906.92416816
  Ewald energy   TEWEN  =    136893.95856843
  -Hartree energ DENC   =   -174643.38771568
  -exchange      EXHF   =      1625.91978192
[...]
    277       8.6053      0.00000
    278       8.6063      0.00000
    279       8.6138      0.00000
    280       8.9189      0.00000
    281       9.0657      0.00000
    282       9.1085      0.00000
    283       9.1108      0.00000
    284       9.1121      0.00000
    285       9.1257      0.00000
    286       9.1294      0.00000
    287       9.1362      0.00000
    288       9.1732      0.00000
    289       9.2011      0.00000
    290       9.2028      0.00000
    291       9.2060      0.00000
    292       9.2285      0.00000
    293       9.3887      0.00000
    294       9.4170      0.00000
    295       9.4483      0.00000
    296       9.4709      0.00000
    297       9.5001      0.00000
    298       9.6072      0.00000
    299       9.6243      0.00000
    300       9.7013      0.00000
    301       9.8242      0.00000
    302       9.8647      0.00000
    303       9.8979      0.00000
    304       9.9244      0.00000
    305       9.9314      0.00000
    306       9.9587      0.00000
    307       9.9723      0.00000
    308       9.9854      0.00000
    309      10.1121      0.00000
    310      10.1305      0.00000
    311      10.3769      0.00000
    312      10.7153      0.00000
    313      10.7613      0.00000
    314      10.8279      0.00000
    315      10.9271      0.00000
    316      10.9393      0.00000
    317      11.4182      0.00000
    318      11.4592      0.00000
    319      11.6071      0.00000
    320      11.6233      0.00000


--------------------------------------------------------------------------------------------------------


 soft charge-density along one line, spin component           1
         0         1         2         3         4         5         6         7         8         9
 total charge-density along one line

 pseudopotential strength for first ion, spin component:           1
  9.962  13.246   0.000   0.035   0.000  -0.000  -0.105  -0.000
 13.246  17.611   0.000   0.046   0.000  -0.000  -0.139  -0.000
  0.000   0.000  -4.193  -0.000  -0.000   8.186   0.000   0.000
  0.035   0.046  -0.000  -4.228   0.000   0.000   8.246  -0.000
  0.000   0.000  -0.000   0.000  -4.193   0.000  -0.000   8.186
 -0.000  -0.000   8.186   0.000   0.000 -18.095  -0.000  -0.000
 -0.105  -0.139   0.000   8.246  -0.000  -0.000 -18.200   0.000
 -0.000  -0.000   0.000  -0.000   8.186  -0.000   0.000 -18.095
 total augmentation occupancy for first ion, spin component:           1
  7.898  -3.604   0.000   2.029   0.000   0.000   0.387   0.000
 -3.604   1.996   0.000  -1.555   0.000  -0.000  -0.236   0.000
  0.000   0.000   0.816   0.000   0.000   0.065   0.000   0.000
  2.029  -1.555   0.000   2.257   0.000   0.000   0.218   0.000
  0.000   0.000   0.000   0.000   0.816   0.000   0.000   0.065
  0.000  -0.000   0.065   0.000   0.000   0.005  -0.000   0.000
  0.387  -0.236   0.000   0.218   0.000  -0.000   0.030   0.000
  0.000   0.000   0.000   0.000   0.065   0.000   0.000   0.005


------------------------ aborting loop because EDIFF is reached ----------------------------------------


    FORLOC:  cpu time      0.0032: real time      0.0032
    FORHF :  cpu time     69.3243: real time     69.3529
    FORNL :  cpu time      0.3261: real time      0.3262
    STRESS:  cpu time      0.9312: real time      0.9314
    FORCOR:  cpu time      0.0355: real time      0.0357
    OFIELD:  cpu time      0.0001: real time      0.0001
    FORVDW:  cpu time      7.9402: real time      7.9710

  FORCE on cell =-STRESS in cart. coord.  units (eV):
  Direction    XX          YY          ZZ          XY          YZ          ZX
  --------------------------------------------------------------------------------------
  Alpha Z   907.96410   907.96410   907.96410
  Ewald  157396.18113157396.18113************     0.00000     0.00000    -0.00000
  Hartree167899.24423167899.24423************    -0.00000    -0.00000    -0.00000
  E(xc)   -1887.95748 -1887.95748 -1890.34904     0.00000     0.00000     0.00000
  Local  ************************334866.09873    -0.00000     0.00000    -0.00000
  n-local  -732.83552  -733.25346  -765.84944     0.00000     0.00000     0.00000
  augment   833.28883   833.28883   822.08526     0.00000     0.00000     0.00000
  Kinetic  7507.90912  7509.63133  7531.73842    -0.00001    -0.00000    -0.00000
  Fock    -2515.64693 -2515.73633 -2514.97071    -0.00000    -0.00000    -0.00000
  vdW        -8.79649    -8.79650    -6.07353    -0.00000    -0.00000    -0.00000
  -------------------------------------------------------------------------------------
  Total     -50.31735   -50.31735   -20.71568     0.00000     0.00000     0.00000
  in kB     -53.04400   -53.04400   -21.83825     0.00000     0.00000     0.00000
  external pressure =      -42.64 kB  Pullay stress =        0.00 kB


 VOLUME and BASIS-vectors are now :
 -----------------------------------------------------------------------------
  energy-cutoff  :      600.00
  volume of cell :     1519.82
      direct lattice vectors                 reciprocal lattice vectors
     8.440984654  0.000000000  0.000000000     0.118469591  0.000000000  0.000000000
     0.000000000  8.440984654  0.000000000     0.000000000  0.118469591  0.000000000
     0.000000000  0.000000000 21.330738491     0.000000000  0.000000000  0.046880702

  length of vectors
     8.440984654  8.440984654 21.330738491     0.118469591  0.118469591  0.046880702


 FORCES acting on ions:
    Electron-Ion                     Ewald-Force                    Non-Local-Force
 -----------------------------------------------------------------------------------------------
   0.983E-13 0.264E-12 -.812E+03   -.222E-13 -.622E-14 0.786E+03   -.662E-23 0.000E+00 0.260E+02
   0.424E-12 -.485E-12 -.141E+04   0.133E-14 0.333E-14 0.147E+04   0.000E+00 0.331E-23 -.531E+02
   -.484E-13 -.118E+00 0.208E+04   0.560E-13 0.118E+00 -.207E+04   0.000E+00 0.173E-04 -.677E+01
   0.118E+00 0.283E-12 0.208E+04   -.118E+00 0.671E-13 -.207E+04   -.173E-04 0.265E-22 -.677E+01
   -.769E-13 0.175E-12 0.712E+03   -.150E-10 0.150E-10 -.713E+03   0.000E+00 0.265E-22 0.450E+00
   0.402E+00 -.402E+00 0.713E+03   -.398E+00 0.398E+00 -.714E+03   -.250E-02 0.250E-02 0.473E+00
   -.495E-13 -.264E+01 -.643E+03   0.157E-11 0.262E+01 0.643E+03   -.265E-22 0.175E-01 -.110E+00
   0.264E+01 0.673E-13 -.643E+03   -.262E+01 -.151E-11 0.643E+03   -.175E-01 0.000E+00 -.110E+00
   -.388E-13 -.552E-12 -.200E+04   0.444E-12 -.416E-12 0.200E+04   0.000E+00 0.000E+00 0.572E+01
   0.167E+02 -.167E+02 -.198E+04   -.168E+02 0.168E+02 0.198E+04   0.729E-01 -.729E-01 0.580E+01
   -.546E-13 0.118E+00 0.208E+04   -.277E-12 -.118E+00 -.207E+04   -.662E-23 -.173E-04 -.677E+01
   0.110E+00 0.104E-11 0.208E+04   -.108E+00 0.131E-10 -.207E+04   -.143E-02 0.000E+00 -.677E+01
   -.679E-13 0.121E-11 0.713E+03   -.165E-10 0.000E+00 -.714E+03   0.000E+00 0.000E+00 0.413E+00
   0.402E+00 0.402E+00 0.713E+03   -.398E+00 -.398E+00 -.714E+03   -.250E-02 -.250E-02 0.473E+00
   -.661E-13 0.264E+01 -.643E+03   0.304E-11 -.262E+01 0.643E+03   0.000E+00 -.175E-01 -.110E+00
   0.364E+01 0.116E-11 -.637E+03   -.356E+01 0.178E-14 0.637E+03   -.719E-01 0.529E-22 -.227E+00
   -.287E-13 0.202E-12 -.199E+04   -.355E-13 -.995E-13 0.198E+04   0.000E+00 0.000E+00 0.573E+01
   0.167E+02 0.167E+02 -.198E+04   -.168E+02 -.168E+02 0.198E+04   0.729E-01 0.729E-01 0.580E+01
   0.925E-12 -.110E+00 0.208E+04   -.129E-10 0.108E+00 -.207E+04   -.265E-22 0.143E-02 -.677E+01
   -.118E+00 0.296E-12 0.208E+04   0.118E+00 0.471E-13 -.207E+04   0.173E-04 0.132E-22 -.677E+01
   0.832E-12 0.323E-12 0.713E+03   0.145E-11 0.150E-10 -.714E+03   0.662E-23 0.000E+00 0.413E+00
   -.402E+00 -.402E+00 0.713E+03   0.398E+00 0.398E+00 -.714E+03   0.250E-02 0.250E-02 0.473E+00
   0.835E-12 -.364E+01 -.637E+03   -.141E-11 0.356E+01 0.637E+03   -.106E-21 0.719E-01 -.227E+00
   -.264E+01 0.121E-12 -.643E+03   0.262E+01 -.156E-11 0.643E+03   0.175E-01 -.132E-22 -.110E+00
   0.920E-12 0.404E-13 -.199E+04   0.782E-13 -.355E-14 0.198E+04   0.132E-22 0.265E-22 0.573E+01
   -.167E+02 -.167E+02 -.198E+04   0.168E+02 0.168E+02 0.198E+04   -.729E-01 -.729E-01 0.580E+01
   0.918E-12 0.110E+00 0.208E+04   -.131E-10 -.108E+00 -.207E+04   0.000E+00 -.143E-02 -.677E+01
   -.110E+00 0.579E-12 0.208E+04   0.108E+00 0.131E-10 -.207E+04   0.143E-02 0.000E+00 -.677E+01
   0.881E-12 0.188E-11 0.713E+03   -.782E-13 0.355E-14 -.714E+03   0.000E+00 0.000E+00 0.543E+00
   -.402E+00 0.402E+00 0.713E+03   0.398E+00 -.398E+00 -.714E+03   0.250E-02 -.250E-02 0.473E+00
   0.843E-12 0.364E+01 -.637E+03   -.284E-13 -.356E+01 0.637E+03   -.132E-21 -.719E-01 -.227E+00
   -.364E+01 -.170E-11 -.637E+03   0.356E+01 0.000E+00 0.637E+03   0.719E-01 -.794E-22 -.227E+00
   0.942E-12 0.144E-11 -.192E+04   -.426E-13 -.391E-13 0.192E+04   0.000E+00 0.000E+00 0.437E+01
   -.167E+02 0.167E+02 -.198E+04   0.168E+02 -.168E+02 0.198E+04   -.729E-01 0.729E-01 0.580E+01
   -.584E-13 -.365E+00 0.534E+03   0.409E-13 0.359E+00 -.534E+03   0.000E+00 0.707E-02 -.102E+00
   0.365E+00 0.673E-13 0.534E+03   -.359E+00 0.391E-13 -.534E+03   -.707E-02 0.124E-23 -.102E+00
   -.812E-13 -.121E-12 0.156E+04   0.853E-11 -.844E-11 -.156E+04   0.000E+00 -.248E-22 0.303E+01
   0.851E-01 -.851E-01 0.156E+04   -.843E-01 0.843E-01 -.156E+04   -.101E-02 0.101E-02 0.303E+01
   -.609E-13 -.694E+01 -.152E+04   -.871E-12 0.688E+01 0.153E+04   -.265E-22 0.520E-01 -.445E+01
   0.694E+01 0.269E-12 -.152E+04   -.688E+01 0.881E-12 0.153E+04   -.520E-01 0.000E+00 -.445E+01
   -.514E-13 0.539E-13 -.479E+03   -.853E-13 0.639E-13 0.478E+03   0.000E+00 0.000E+00 0.256E+00
   0.232E+01 -.232E+01 -.474E+03   -.231E+01 0.231E+01 0.474E+03   -.764E-02 0.764E-02 0.315E+00
   -.650E-13 0.365E+00 0.534E+03   0.142E-13 -.359E+00 -.534E+03   0.331E-23 -.707E-02 -.102E+00
   0.313E+00 0.606E-12 0.535E+03   -.342E+00 -.764E-11 -.534E+03   0.327E-01 -.132E-22 -.120E+00
   -.592E-13 0.431E-12 0.156E+04   0.845E-11 -.796E-12 -.156E+04   -.132E-22 0.000E+00 0.303E+01
   0.851E-01 0.851E-01 0.156E+04   -.843E-01 -.843E-01 -.156E+04   -.101E-02 -.101E-02 0.303E+01
   -.537E-13 0.694E+01 -.152E+04   -.774E-12 -.688E+01 0.153E+04   0.000E+00 -.520E-01 -.445E+01
   0.212E+02 0.198E-11 -.149E+04   -.209E+02 0.810E-11 0.150E+04   -.219E+00 -.132E-22 -.438E+01
   -.806E-13 0.714E-12 -.474E+03   -.741E-11 0.711E-14 0.474E+03   0.000E+00 0.000E+00 0.275E+00
   0.232E+01 0.232E+01 -.474E+03   -.231E+01 -.231E+01 0.474E+03   -.764E-02 -.764E-02 0.315E+00
   0.326E-12 -.313E+00 0.535E+03   0.764E-11 0.342E+00 -.534E+03   -.265E-22 -.327E-01 -.120E+00
   -.365E+00 0.404E-13 0.534E+03   0.359E+00 0.142E-13 -.534E+03   0.707E-02 0.145E-23 -.102E+00
   0.400E-12 -.155E-12 0.156E+04   0.845E-12 -.846E-11 -.156E+04   0.000E+00 0.000E+00 0.303E+01
   -.851E-01 -.851E-01 0.156E+04   0.843E-01 0.843E-01 -.156E+04   0.101E-02 0.101E-02 0.303E+01
   0.396E-12 -.212E+02 -.149E+04   -.816E-11 0.209E+02 0.150E+04   -.132E-22 0.219E+00 -.438E+01
   -.694E+01 0.256E-12 -.152E+04   0.688E+01 0.924E-12 0.153E+04   0.520E-01 0.265E-22 -.445E+01
   0.334E-12 0.283E-12 -.474E+03   -.711E-14 0.738E-11 0.474E+03   0.331E-23 0.662E-23 0.275E+00
   -.232E+01 -.232E+01 -.474E+03   0.231E+01 0.231E+01 0.474E+03   0.764E-02 0.764E-02 0.315E+00
   0.329E-12 0.313E+00 0.535E+03   0.763E-11 -.342E+00 -.534E+03   0.000E+00 0.327E-01 -.120E+00
   -.313E+00 0.156E-11 0.535E+03   0.342E+00 -.769E-11 -.534E+03   -.327E-01 0.529E-22 -.120E+00
   0.381E-12 0.127E-11 0.156E+04   0.824E-12 -.838E-12 -.156E+04   0.165E-23 0.000E+00 0.303E+01
   -.851E-01 0.851E-01 0.156E+04   0.843E-01 -.843E-01 -.156E+04   0.101E-02 -.101E-02 0.303E+01
   0.377E-12 0.212E+02 -.149E+04   -.820E-11 -.209E+02 0.150E+04   0.000E+00 -.219E+00 -.438E+01
   -.212E+02 -.539E-12 -.149E+04   0.209E+02 0.819E-11 0.150E+04   0.219E+00 0.000E+00 -.438E+01
   0.303E-12 0.337E-12 -.475E+03   -.497E-13 0.426E-13 0.475E+03   0.000E+00 0.000E+00 -.148E+00
   -.232E+01 0.232E+01 -.474E+03   0.231E+01 -.231E+01 0.474E+03   0.764E-02 -.764E-02 0.315E+00
 -----------------------------------------------------------------------------------------------
   0.261E-10 0.206E-10 0.542E+02   0.176E-12 -.129E-12 0.455E-11   0.121E-16 -.711E-16 -.442E+02


 POSITION                                       TOTAL-FORCE (eV/Angst)
 -----------------------------------------------------------------------------------
      4.22049      4.22049     16.42814        -0.000000     -0.000000      1.955711
      4.22049      4.22049     17.57496        -0.000000     -0.000000     -2.041907
      0.00000      6.33074      7.50000        -0.000000     -0.000049      0.586861
      2.11025      0.00000      7.50000         0.000049     -0.000000      0.586861
      0.00000      0.00000      9.61025        -0.000000     -0.000000      0.050990
      2.11025      6.33074      9.61025         0.001567     -0.001567      0.053042
      0.00000      6.33023     11.73368        -0.000000     -0.001181      0.006473
      2.11076      0.00000     11.73368         0.001181     -0.000000      0.006473
      0.00000      0.00000     13.83822        -0.000000     -0.000000     -0.203171
      2.10905      6.33193     13.83447        -0.006014      0.006014     -0.211277
      0.00000      2.11025      7.50000        -0.000000      0.000049      0.586861
      2.11025      4.22049      7.50000         0.000467     -0.000000      0.587055
      0.00000      4.22049      9.61025        -0.000000     -0.000000      0.061347
      2.11025      2.11025      9.61025         0.001567      0.001567      0.053042
      0.00000      2.11076     11.73368        -0.000000      0.001181      0.006473
      2.11344      4.22049     11.73659        -0.004510     -0.000000      0.017142
      0.00000      4.22049     13.83544        -0.000000     -0.000000     -0.206217
      2.10905      2.10905     13.83447        -0.006014     -0.006014     -0.211277
      4.22049      6.33074      7.50000        -0.000000     -0.000467      0.587055
      6.33074      0.00000      7.50000        -0.000049     -0.000000      0.586861
      4.22049      0.00000      9.61025        -0.000000     -0.000000      0.061347
      6.33074      6.33074      9.61025        -0.001567     -0.001567      0.053042
      4.22049      6.32754     11.73659        -0.000000      0.004510      0.017142
      6.33023      0.00000     11.73368        -0.001181     -0.000000      0.006473
      4.22049      0.00000     13.83544        -0.000000     -0.000000     -0.206217
      6.33193      6.33193     13.83447         0.006014      0.006014     -0.211277
      4.22049      2.11025      7.50000        -0.000000      0.000467      0.587055
      6.33074      4.22049      7.50000        -0.000467     -0.000000      0.587055
      4.22049      4.22049      9.61025        -0.000000     -0.000000      0.063717
      6.33074      2.11025      9.61025        -0.001567      0.001567      0.053042
      4.22049      2.11344     11.73659        -0.000000     -0.004510      0.017142
      6.32754      4.22049     11.73659         0.004510     -0.000000      0.017142
      4.22049      4.22049     13.87814        -0.000000     -0.000000     -0.126314
      6.33193      2.10905     13.83447         0.006014     -0.006014     -0.211277
      0.00000      6.33074      9.61025        -0.000000      0.002550      0.061745
      2.11025      0.00000      9.61025        -0.002550     -0.000000      0.061745
      0.00000      0.00000      7.50000        -0.000000     -0.000000     -0.413356
      2.11025      6.33074      7.50000        -0.000358      0.000358     -0.413175
      0.00000      6.33258     13.88587        -0.000000     -0.000315     -0.126534
      2.10840      0.00000     13.88587         0.000315     -0.000000     -0.126534
      0.00000      0.00000     11.72785        -0.000000     -0.000000      0.025461
      2.10979      6.33120     11.72890         0.002026     -0.002026      0.019309
      0.00000      2.11025      9.61025        -0.000000     -0.002550      0.061745
      2.11025      4.22049      9.61025         0.010235     -0.000000      0.069778
      0.00000      4.22049      7.50000        -0.000000     -0.000000     -0.413435
      2.11025      2.11025      7.50000        -0.000358     -0.000358     -0.413175
      0.00000      2.10840     13.88587        -0.000000      0.000315     -0.126534
      2.10031      4.22049     13.88381         0.013727     -0.000000     -0.108545
      0.00000      4.22049     11.72684        -0.000000     -0.000000      0.022715
      2.10979      2.10979     11.72890         0.002026      0.002026      0.019309
      4.22049      6.33074      9.61025        -0.000000     -0.010235      0.069778
      6.33074      0.00000      9.61025         0.002550     -0.000000      0.061745
      4.22049      0.00000      7.50000        -0.000000     -0.000000     -0.413435
      6.33074      6.33074      7.50000         0.000358      0.000358     -0.413175
      4.22049      6.34068     13.88381        -0.000000     -0.013727     -0.108545
      6.33258      0.00000     13.88587        -0.000315     -0.000000     -0.126534
      4.22049      0.00000     11.72684        -0.000000     -0.000000      0.022715
      6.33120      6.33120     11.72890        -0.002026     -0.002026      0.019309
      4.22049      2.11025      9.61025        -0.000000      0.010235      0.069778
      6.33074      4.22049      9.61025        -0.010235     -0.000000      0.069778
      4.22049      4.22049      7.50000        -0.000000     -0.000000     -0.413869
      6.33074      2.11025      7.50000         0.000358     -0.000358     -0.413175
      4.22049      2.10031     13.88381        -0.000000      0.013727     -0.108545
      6.34068      4.22049     13.88381        -0.013727     -0.000000     -0.108545
      4.22049      4.22049     11.73684        -0.000000     -0.000000      0.006421
      6.33120      2.10979     11.72890        -0.002026      0.002026      0.019309
 -----------------------------------------------------------------------------------
    total drift:                                0.000000      0.000000     -0.023923


--------------------------------------------------------------------------------------------------------



  FREE ENERGIE OF THE ION-ELECTRON SYSTEM (eV)
  ---------------------------------------------------
  free  energy   TOTEN  =      -490.97697472 eV

  energy  without entropy=     -490.97697472  energy(sigma->0) =     -490.97697472



--------------------------------------------------------------------------------------------------------


    POTLOK:  cpu time      0.5590: real time      0.5591


--------------------------------------------------------------------------------------------------------


     LOOP+:  cpu time   3721.2820: real time   3722.4523
    4ORBIT:  cpu time      0.0000: real time      0.0000

 total amount of memory used by VASP MPI-rank0   185307. kBytes
=======================================================================

   base      :      30000. kBytes
   nonl-proj :      14893. kBytes
   fftplans  :       3932. kBytes
   grid      :       3944. kBytes
   one-center:         73. kBytes
   HF        :        101. kBytes
   nonlr-proj:      15027. kBytes
   wavefun   :       4746. kBytes
   fock_wrk  :     112591. kBytes

  
  
 General timing and accounting informations for this job:
 ========================================================
  
                  Total CPU time used (sec):     3750.672
                            User time (sec):     3740.402
                          System time (sec):       10.270
                         Elapsed time (sec):     3763.255
  
                   Maximum memory used (kb):      412552.
                   Average memory used (kb):          N/A
  
                          Minor page faults:       290335
                          Major page faults:           52
                 Voluntary context switches:        14540
