 vasp.6.3.0 20Jan22 (build Apr  1 2022 16:44:48) gamma-only                      
 executed on        HPECrayEX_GCC date 2022.12.20  06:08:38
 running  512 mpi-ranks, with    1 threads/rank
 distrk:  each k-point on  512 cores,    1 groups
 distr:  one band on NCORE=   8 cores,   64 groups


--------------------------------------------------------------------------------------------------------


 INCAR:
   SYSTEM = MgO-rocksalt
   ISMEAR = 0
   SIGMA = 0.05
   EDIFF = 1E-7
   ALGO = ALL
   ISTART = 0
   IBRION = 5
   POTIM = 0.035
   NFREE = 2
   ISYM = 0
   DIPOL = 0.5 0.5 0.5
   IDIPOL = 3
   LDIPOL = .TRUE.
   LHFCALC = .TRUE.
   GGA = PE
   IVDW = 13
   VDW_S8 = 1.2007
   VDW_A1 = 0.4009
   VDW_A2 = 5.0293
   ENCUT = 600
   PREC = Accurate
   LASPH = .TRUE.
   LREAL = .FALSE.
   ISPIN = 1
   NELM = 200
   NELMIN = 8
   NCORE = 8
   KPAR = 1
   LWAVE = .FALSE.
   LCHARG = .FALSE.

 POTCAR:    PAW_PBE C 08Apr2002                   
 POTCAR:    PAW_PBE O 08Apr2002                   
 POTCAR:    PAW_PBE C 08Apr2002                   
   SHA256 =  253f7b50bb8d59471dbedb8285d89021f4a42ed1a2c5d38a03a736e69125dd95 C/POTCAR              
   COPYR  = (c) Copyright 08Apr2002 Georg Kresse                                                    
   COPYR  = This file is part of the software VASP. Any use, copying, and all other rights are regul
   COPYR  = If you do not have a valid VASP license, you may not use, copy or distribute this file. 
   VRHFIN =C: s2p2                                                                                  
   LEXCH  = PE                                                                                      
   EATOM  =   147.1560 eV,   10.8157 Ry                                                             
                                                                                                    
   TITEL  = PAW_PBE C 08Apr2002                                                                     
   LULTRA =        F    use ultrasoft PP ?                                                          
   IUNSCR =        1    unscreen: 0-lin 1-nonlin 2-no                                               
   RPACOR =    1.200    partial core radius                                                         
   POMASS =   12.011; ZVAL   =    4.000    mass and valenz                                          
   RCORE  =    1.500    outmost cutoff radius                                                       
   RWIGS  =    1.630; RWIGS  =    0.863    wigner-seitz radius (au A)                               
   ENMAX  =  400.000; ENMIN  =  300.000 eV                                                          
   ICORE  =        2    local potential                                                             
   LCOR   =        T    correct aug charges                                                         
   LPAW   =        T    paw PP                                                                      
   EAUG   =  644.873                                                                                
   DEXC   =    0.000                                                                                
   RMAX   =    1.529    core radius for proj-oper                                                   
   RAUG   =    1.300    factor for augmentation sphere                                              
   RDEP   =    1.501    radius for radial grids                                                     
   RDEPT  =    1.300    core radius for aug-charge                                                  
                                                                                                    
   Atomic configuration                                                                             
    4 entries                                                                                       
     n  l   j            E        occ.                                                              
     1  0  0.50      -273.3789   2.0000                                                             
     2  0  0.50       -13.7508   2.0000                                                             
     2  1  0.50        -5.2854   2.0000                                                             
     3  2  1.50        -5.4423   0.0000                                                             
   Description                                                                                      
     l       E           TYP  RCUT    TYP  RCUT                                                     
     0    -13.7508458     23  1.200                                                                 
     0     -8.2022199     23  1.200                                                                 
     1     -5.2854383     23  1.500                                                                 
     1     34.0145650     23  1.500                                                                 
     2     -5.4423304      7  1.500                                                                 
  local pseudopotential read in
  partial core-charges read in
  partial kinetic energy density read in
  atomic valenz-charges read in
  non local Contribution for L=           0  read in
    real space projection operators read in
  non local Contribution for L=           0  read in
    real space projection operators read in
  non local Contribution for L=           1  read in
    real space projection operators read in
  non local Contribution for L=           1  read in
    real space projection operators read in
    PAW grid and wavefunctions read in

   number of l-projection  operators is LMAX  =           4
   number of lm-projection operators is LMMAX =           8

 POTCAR:    PAW_PBE O 08Apr2002                   
   SHA256 =  818f92134a0a090dccd8ba1447fa70422a3b330e708bb4f08108d8ae51209ddf O/POTCAR              
   COPYR  = (c) Copyright 08Apr2002 Georg Kresse                                                    
   COPYR  = This file is part of the software VASP. Any use, copying, and all other rights are regul
   COPYR  = If you do not have a valid VASP license, you may not use, copy or distribute this file. 
   VRHFIN =O: s2p4                                                                                  
   LEXCH  = PE                                                                                      
   EATOM  =   432.3788 eV,   31.7789 Ry                                                             
                                                                                                    
   TITEL  = PAW_PBE O 08Apr2002                                                                     
   LULTRA =        F    use ultrasoft PP ?                                                          
   IUNSCR =        1    unscreen: 0-lin 1-nonlin 2-no                                               
   RPACOR =    1.200    partial core radius                                                         
   POMASS =   16.000; ZVAL   =    6.000    mass and valenz                                          
   RCORE  =    1.520    outmost cutoff radius                                                       
   RWIGS  =    1.550; RWIGS  =    0.820    wigner-seitz radius (au A)                               
   ENMAX  =  400.000; ENMIN  =  300.000 eV                                                          
   ICORE  =        2    local potential                                                             
   LCOR   =        T    correct aug charges                                                         
   LPAW   =        T    paw PP                                                                      
   EAUG   =  605.392                                                                                
   DEXC   =    0.000                                                                                
   RMAX   =    1.553    core radius for proj-oper                                                   
   RAUG   =    1.300    factor for augmentation sphere                                              
   RDEP   =    1.550    radius for radial grids                                                     
   RDEPT  =    1.329    core radius for aug-charge                                                  
                                                                                                    
   Atomic configuration                                                                             
    4 entries                                                                                       
     n  l   j            E        occ.                                                              
     1  0  0.50      -514.6923   2.0000                                                             
     2  0  0.50       -23.9615   2.0000                                                             
     2  1  0.50        -9.0305   4.0000                                                             
     3  2  1.50        -9.5241   0.0000                                                             
   Description                                                                                      
     l       E           TYP  RCUT    TYP  RCUT                                                     
     0    -23.9615318     23  1.200                                                                 
     0     -9.5240782     23  1.200                                                                 
     1     -9.0304911     23  1.520                                                                 
     1      8.1634956     23  1.520                                                                 
     2     -9.5240782      7  1.500                                                                 
  local pseudopotential read in
  partial core-charges read in
  partial kinetic energy density read in
  kinetic energy density of atom read in
  atomic valenz-charges read in
  non local Contribution for L=           0  read in
    real space projection operators read in
  non local Contribution for L=           0  read in
    real space projection operators read in
  non local Contribution for L=           1  read in
    real space projection operators read in
  non local Contribution for L=           1  read in
    real space projection operators read in
    PAW grid and wavefunctions read in

   number of l-projection  operators is LMAX  =           4
   number of lm-projection operators is LMMAX =           8

  PAW_PBE C 08Apr2002                   :
 energy of atom  1       EATOM= -147.1560
 kinetic energy error for atom=    0.0057 (will be added to EATOM!!)
  PAW_PBE O 08Apr2002                   :
 energy of atom  2       EATOM= -432.3788
 kinetic energy error for atom=    0.0168 (will be added to EATOM!!)


 POSCAR:  C  O
  positions in direct lattice
  No initial velocities read in
 -----------------------------------------------------------------------------
|                                                                             |
|           W    W    AA    RRRRR   N    N  II  N    N   GGGG   !!!           |
|           W    W   A  A   R    R  NN   N  II  NN   N  G    G  !!!           |
|           W    W  A    A  R    R  N N  N  II  N N  N  G       !!!           |
|           W WW W  AAAAAA  RRRRR   N  N N  II  N  N N  G  GGG   !            |
|           WW  WW  A    A  R   R   N   NN  II  N   NN  G    G                |
|           W    W  A    A  R    R  N    N  II  N    N   GGGG   !!!           |
|                                                                             |
|     Specifying the vdW parameters                                           |
|     VDW_S8 = 1.201                                                          |
|     VDW_A1 = 0.401                                                          |
|     VDW_A2 = 5.029                                                          |
|     in the INCAR file will overwrite the defaults for pbe0. Please make     |
|     sure that is what you intended.                                         |
|                                                                             |
 -----------------------------------------------------------------------------

 exchange correlation table for  LEXCH =        8
   RHO(1)=    0.500       N(1)  =     2000
   RHO(2)=  100.500       N(2)  =     4000



--------------------------------------------------------------------------------------------------------


 ion  position               nearest neighbor table
   1  0.500  0.500  0.473-   2 1.13
   2  0.500  0.500  0.527-   1 1.13


IMPORTANT INFORMATION: All symmetrisations will be switched off!
NOSYMM: (Re-)initialisation of all symmetry stuff for point group C_1.


----------------------------------------------------------------------------------------

                                     Primitive cell                                     

  volume of cell :    8450.5313

  direct lattice vectors                    reciprocal lattice vectors
    20.000000000  0.000000000  0.000000000     0.050000000  0.000000000  0.000000000
     0.000000000 20.000000000  0.000000000     0.000000000  0.050000000  0.000000000
     0.000000000  0.000000000 21.126328287     0.000000000  0.000000000  0.047334302

  length of vectors
    20.000000000 20.000000000 21.126328287     0.050000000  0.050000000  0.047334302

  position of ions in fractional coordinates (direct lattice)
     0.500000000  0.500000000  0.473233005
     0.500000000  0.500000000  0.526766995

  ion indices of the primitive-cell ions
   primitive index   ion index
                 1           1
                 2           2

----------------------------------------------------------------------------------------



 KPOINTS: pymatgen v2020.8.13 with grid density = 

Automatic generation of k-mesh.
 Grid dimensions read from file:
 generate k-points for:    1    1    1

 Generating k-lattice:

  Cartesian coordinates                     Fractional coordinates (reciprocal lattice)
     0.050000000  0.000000000  0.000000000     1.000000000  0.000000000  0.000000000
     0.000000000  0.050000000  0.000000000     0.000000000  1.000000000  0.000000000
     0.000000000  0.000000000  0.047334302     0.000000000  0.000000000  1.000000000

  Length of vectors
     0.050000000  0.050000000  0.047334302

  Shift w.r.t. Gamma in fractional coordinates (k-lattice)
     0.000000000  0.000000000  0.000000000

 
 Subroutine IBZKPT returns following result:
 ===========================================
 
 Found      1 irreducible k-points:
 
 Following reciprocal coordinates:
            Coordinates               Weight
  0.000000  0.000000  0.000000      1.000000
 
 Following cartesian coordinates:
            Coordinates               Weight
  0.000000  0.000000  0.000000      1.000000
 
 
 Subroutine IBZKPT_HF returns following result:
 ==============================================
 
 Found      1 k-points in 1st BZ
 the following      1 k-points will be used (e.g. in the exchange kernel)
 Following reciprocal coordinates:   # in IRBZ
  0.000000  0.000000  0.000000    1.00000000   1 t-inv F


--------------------------------------------------------------------------------------------------------




 Dimension of arrays:
   k-points           NKPTS =      1   k-points in BZ     NKDIM =      1   number of bands    NBANDS=     64
   number of dos      NEDOS =    301   number of ions     NIONS =      2
   non local maximal  LDIM  =      4   non local SUM 2l+1 LMDIM =      8
   total plane-waves  NPLWV = ******
   max r-space proj   IRMAX =      1   max aug-charges    IRDMAX=   7273
   dimension x,y,z NGX =   160 NGY =  160 NGZ =  180
   dimension x,y,z NGXF=   320 NGYF=  320 NGZF=  360
   support grid    NGXF=   320 NGYF=  320 NGZF=  360
   ions per type =               1   1
   NGX,Y,Z   is equivalent  to a cutoff of  13.30, 13.30, 14.16 a.u.
   NGXF,Y,Z  is equivalent  to a cutoff of  26.60, 26.60, 28.33 a.u.

 SYSTEM =  MgO-rocksalt                            
 POSCAR =   C  O                                   

 Startparameter for this run:
   NWRITE =      2    write-flag & timer
   PREC   = accura    normal or accurate (medium, high low for compatibility)
   ISTART =      0    job   : 0-new  1-cont  2-samecut
   ICHARG =      2    charge: 1-file 2-atom 10-const
   ISPIN  =      1    spin polarized calculation?
   LNONCOLLINEAR =      F non collinear calculations
   LSORBIT =      F    spin-orbit coupling
   INIWAV =      1    electr: 0-lowe 1-rand  2-diag
   LASPH  =      T    aspherical Exc in radial PAW
 Electronic Relaxation 1
   ENCUT  =  600.0 eV  44.10 Ry    6.64 a.u.  39.94 39.94 42.19*2*pi/ulx,y,z
   ENINI  =  600.0     initial cutoff
   ENAUG  =  644.9 eV  augmentation charge cutoff
   NELM   =    200;   NELMIN=  8; NELMDL= -5     # of ELM steps 
   EDIFF  = 0.1E-06   stopping-criterion for ELM
   LREAL  =      F    real-space projection
   NLSPLINE    = F    spline interpolate recip. space projectors
   LCOMPAT=      F    compatible to vasp.4.4
   GGA_COMPAT  = T    GGA compatible to vasp.4.4-vasp.4.6
   LMAXPAW     = -100 max onsite density
   LMAXMIX     =    2 max onsite mixed and CHGCAR
   VOSKOWN=      0    Vosko Wilk Nusair interpolation
   ROPT   =    0.00000   0.00000
 Ionic relaxation
   EDIFFG = 0.1E-05   stopping-criterion for IOM
   NSW    =     61    number of steps for IOM
   NBLOCK =      1;   KBLOCK =     61    inner block; outer block 
   IBRION =      5    ionic relax: 0-MD 1-quasi-New 2-CG
   NFREE  =      2    steps in history (QN), initial steepest desc. (CG)
   ISIF   =      0    stress and relaxation
   IWAVPR =     11    prediction:  0-non 1-charg 2-wave 3-comb
   ISYM   =      0    0-nonsym 1-usesym 2-fastsym
   LCORR  =      T    Harris-Foulkes like correction to forces

   POTIM  = 0.0350    time-step for ionic-motion
   TEIN   =    0.0    initial temperature
   TEBEG  =    0.0;   TEEND  =   0.0 temperature during run
   SMASS  =  -3.00    Nose mass-parameter (am)
   estimated Nose-frequenzy (Omega)   =  0.10E-29 period in steps = 0.18E+48 mass=  -0.914E-26a.u.
   SCALEE = 1.0000    scale energy and forces
   NPACO  =    256;   APACO  = 10.0  distance and # of slots for P.C.
   PSTRESS=    0.0 pullay stress

  Mass of Ions in am
   POMASS =  12.01 16.00
  Ionic Valenz
   ZVAL   =   4.00  6.00
  Atomic Wigner-Seitz radii
   RWIGS  =  -1.00 -1.00
  virtual crystal weights 
   VCA    =   1.00  1.00
   NELECT =      10.0000    total number of electrons
   NUPDOWN=      -1.0000    fix difference up-down

 DOS related values:
   EMIN   =  10.00;   EMAX   =-10.00  energy-range for DOS
   EFERMI =   0.00
   ISMEAR =     0;   SIGMA  =   0.05  broadening in eV -4-tet -1-fermi 0-gaus

 Electronic relaxation 2 (details)
   IALGO  =     58    algorithm
   LDIAG  =      T    sub-space diagonalisation (order eigenvalues)
   LSUBROT=      F    optimize rotation matrix (better conditioning)
   TURBO    =      0    0=normal 1=particle mesh
   IRESTART =      0    0=no restart 2=restart with 2 vectors
   NREBOOT  =      0    no. of reboots
   NMIN     =      0    reboot dimension
   EREF     =   0.00    reference energy to select bands
   IMIX   =      4    mixing-type and parameters
     AMIX     =   0.40;   BMIX     =  1.00
     AMIX_MAG =   1.60;   BMIX_MAG =  1.00
     AMIN     =   0.10
     WC   =   100.;   INIMIX=   1;  MIXPRE=   1;  MAXMIX= -45

 Intra band minimization:
   WEIMIN = 0.0010     energy-eigenvalue tresh-hold
   EBREAK =  0.39E-09  absolut break condition
   DEPER  =   0.30     relativ break condition  

   TIME   =   0.40     timestep for ELM

  volume/ion in A,a.u.               =    4225.27     28513.50
  Fermi-wavevector in a.u.,A,eV,Ry     =   0.173160  0.327224  0.407961  0.029984
  Thomas-Fermi vector in A             =   0.887314

 Write flags
   LWAVE        =      F    write WAVECAR
   LDOWNSAMPLE  =      F    k-point downsampling of WAVECAR
   LCHARG       =      F    write CHGCAR
   LVTOT        =      F    write LOCPOT, total local potential
   LVHAR        =      F    write LOCPOT, Hartree potential only
   LELF         =      F    write electronic localiz. function (ELF)
   LORBIT       =      0    0 simple, 1 ext, 2 COOP (PROOUT), +10 PAW based schemes


 Dipole corrections
   LMONO  =      F    monopole corrections only (constant potential shift)
   LDIPOL =      T    correct potential (dipole corrections)
   IDIPOL =      3    1-x, 2-y, 3-z, 4-all directions 
   EPSILON=  1.0000000 bulk dielectric constant

 Exchange correlation treatment:
   GGA     =    PE    GGA type
   LEXCH   =     8    internal setting for exchange type
   LIBXC   =     F    Libxc                    
   VOSKOWN =     0    Vosko Wilk Nusair interpolation
   EXXOEP  =     0    0=HF, 1=EXX-LHF (local Hartree Fock) 2=EXX OEP
   LHFCALC =     T    Hartree Fock is set to
   LSYMGRAD=     F    symmetrize gradient (conserves proper symmetry)
   PRECFOCK=normal    Normal, Fast or Accurate (Low or Medium for compatibility)
   LRHFCALC=     F    long range Hartree Fock
   LRSCOR  =     F    long range correlation only (use DFT for short range part)
   LTHOMAS =     F    Thomas Fermi screening in HF
   LMODELHF=     F    short range full HF, long range fraction AEXX
   LFOCKACE=     T    use Adeptively-Compressed-Exchange operator
   ENCUT4O =  -1.0   cutoff for four orbital integrals eV
   LMAXFOCK=     4    L truncation for augmentation on plane wave grid
   LMAXFOCKAE=  -1    L truncation for all-electron charge restoration on plane wave grid
   NMAXFOCKAE=   1    number of basis functions for all-electron charge restoration
   LFOCKAEDFT=     F  apply the AE augmentation even for DFT
   NKREDX  =     1    reduce k-point grid by
   NKREDY  =     1    reduce k-point grid by
   NKREDZ  =     1    reduce k-point grid by
   SHIFTRED=     F    shift reduced grid of Gamma
   HFKIDENT=     F    idential grid for each k-point
   ODDONLY =     F    use only odd q-grid points
   EVENONLY=     F    use only even q-grid points
   HFALPHA =   -1.0000 decay constant for conv. correction
   MCALPHA =    0.0000 extent of test-charge in conv. correction in multipole expansion
   AEXX    =    0.2500 exact exchange contribution
   HFSCREEN=    0.0000 screening length (either q_TF or 0.3 A-1)
   HFSCREENC=   0.0000 screening length for correlation (either q_TF or 0.3 A-1)
   HFRCUT  =    0.0000 spherical cutoff for potential kernel
   ALDAX   =    0.7500 LDA exchange part
   AGGAX   =    0.7500 GGA exchange part
   ALDAC   =    1.0000 LDA correlation
   AGGAC   =    1.0000 GGA correlation
   ENCUTFOCK=  -1.0 apply spherical cutoff to Coloumb kernel
   NBANDSGWLOW=     1    first orbital included in HF term
   NBLOCK_FOCK=    64    blocking factor in FOCK_ACC

 Linear response parameters
   LEPSILON=     F    determine dielectric tensor
   LRPA    =     F    only Hartree local field effects (RPA)
   LNABLA  =     F    use nabla operator in PAW spheres
   LVEL    =     F    velocity operator in full k-point grid
   CSHIFT  =0.1000    complex shift for real part using Kramers Kronig
   OMEGAMAX=  -1.0    maximum frequency
   DEG_THRESHOLD= 0.2000000E-02 threshold for treating states as degnerate
   RTIME   =   -0.100 relaxation time in fs
  (WPLASMAI=    0.000 imaginary part of plasma frequency in eV, 0.658/RTIME)
   DFIELD  = 0.0000000 0.0000000 0.0000000 field for delta impulse in time

  Optional k-point grid parameters
   LKPOINTS_OPT  =     F    use optional k-point grid
   KPOINTS_OPT_MODE=     1    mode for optional k-point grid

 Orbital magnetization related:
   ORBITALMAG=     F  switch on orbital magnetization
   LCHIMAG   =     F  perturbation theory with respect to B field
   DQ        =  0.001000  dq finite difference perturbation B field
   LLRAUG    =     F  two centre corrections for induced B field



--------------------------------------------------------------------------------------------------------


 finite differences
 charge density and potential will be updated during run
 non-spin polarized calculation
 Conjugate gradient for all bands (Freysoldt, et al. PRB 79, 241103 (2009))
 preconditioned conjugated gradient                                        
 perform sub-space diagonalisation
    before iterative eigenvector-optimisation
 modified Broyden-mixing scheme, WC =      100.0
 initial mixing is a Kerker type mixing with AMIX =  0.4000 and BMIX =      1.0000
 Hartree-type preconditioning will be used
 using additional bands           59
 reciprocal scheme for non local part
 use partial core corrections
 no Harris-corrections to forces 
 use gradient corrections 
 use of overlap-Matrix (Vanderbilt PP)
 Gauss-broadening in eV      SIGMA  =   0.05


--------------------------------------------------------------------------------------------------------


  energy-cutoff  :      600.00
  volume of cell :     8450.53
      direct lattice vectors                 reciprocal lattice vectors
    20.000000000  0.000000000  0.000000000     0.050000000  0.000000000  0.000000000
     0.000000000 20.000000000  0.000000000     0.000000000  0.050000000  0.000000000
     0.000000000  0.000000000 21.126328287     0.000000000  0.000000000  0.047334302

  length of vectors
    20.000000000 20.000000000 21.126328287     0.050000000  0.050000000  0.047334302



 k-points in units of 2pi/SCALE and weight: pymatgen v2020.8.13 with grid density = 
   0.00000000  0.00000000  0.00000000       1.000

 k-points in reciprocal lattice and weights: pymatgen v2020.8.13 with grid density = 
   0.00000000  0.00000000  0.00000000       1.000

 position of ions in fractional coordinates (direct lattice) 
   0.50000000  0.50000000  0.47323301
   0.50000000  0.50000000  0.52676699

 position of ions in cartesian coordinates  (Angst):
  10.00000000 10.00000000  9.99767583
  10.00000000 10.00000000 11.12865246



--------------------------------------------------------------------------------------------------------


 use parallel FFT for orbitals z direction half grid
 k-point   1 :   0.0000 0.0000 0.0000  plane waves:  140949

 maximum and minimum number of plane-waves per node :     17623    17611

 maximum number of plane-waves:    140949
 maximum index in each direction: 
   IXMAX=   39   IYMAX=   39   IZMAX=   42
   IXMIN=  -39   IYMIN=  -39   IZMIN=    0


 parallel 3D FFT for wavefunctions:
    minimum data exchange during FFTs selected (reduces bandwidth)
 parallel 3D FFT for charge:
    minimum data exchange during FFTs selected (reduces bandwidth)


 FFT grid for exact exchange (Hartree Fock) 
  NGX =120; NGY =120; NGZ =128

 use parallel FFT for orbitals z direction half grid

 Radii for the augmentation spheres in the non-local exchange
 for species   1 augmentation radius   0.874 (default was   0.699)
       energy cutoff for augmentation   2400.0
 for species   2 augmentation radius   0.902 (default was   0.722)
       energy cutoff for augmentation   2400.0

 real space projection operators:
  total allocation   :         90.35 KBytes
  max/ min on nodes  :         12.59         10.20

 Maximum index for augmentation-charges in exchange           84
  SETUP_FOCK is finished

 total amount of memory used by VASP MPI-rank0    86836. kBytes
=======================================================================

   base      :      30000. kBytes
   nonl-proj :       2826. kBytes
   fftplans  :      23575. kBytes
   grid      :      29568. kBytes
   one-center:          1. kBytes
   HF        :          4. kBytes
   nonlr-proj:         13. kBytes
   wavefun   :        849. kBytes

     INWAV:  cpu time      0.0000: real time      0.0000
 Broyden mixing: mesh for mixing (old mesh)
   NGX = 79   NGY = 79   NGZ = 85
  (NGX  =320   NGY  =320   NGZ  =360)
  gives a total of 530485 points

 initial charge density was supplied:
 charge density of overlapping atoms calculated
 number of electron      10.0000000 magnetization 
 keeping initial charge density in first step


--------------------------------------------------------------------------------------------------------


 Maximum index for augmentation-charges            0 (set IRDMAX)


--------------------------------------------------------------------------------------------------------


    FEWALD:  cpu time      0.0003: real time      0.0003


--------------------------------------- Iteration      1(   1)  ---------------------------------------


    POTLOK:  cpu time      0.1458: real time      0.1467
    SETDIJ:  cpu time      0.0793: real time      0.0793
    TRIAL :  cpu time      0.2350: real time      0.2358
    CORREC:  cpu time      0.0009: real time      0.0009
    --------------------------------------------
      LOOP:  cpu time      0.4622: real time      0.5061

 eigenvalue-minimisations  :   192
 total energy-change (2. order) : 0.2632627E+02  (-0.2617423E+03)
 number of electron      10.0000000 magnetization 
 augmentation part       10.0000000 magnetization 

 DIPCOR: dipole corrections for dipol
 direction  3 min pos     1,
 dipolmoment           0.000000      0.000000      0.000002 electrons x Angstroem
 Tr[quadrupol]     -1999.002067

 energy correction for charged system         0.000000 eV
 dipol+quadrupol energy correction           -0.000000 eV
 added-field ion interaction         -0.000000 eV  (added to PSCEN)


 Free energy of the ion-electron system (eV)
  ---------------------------------------------------
  alpha Z        PSCENC =         0.05170765
  Ewald energy   TEWEN  =       205.47378917
  -Hartree energ DENC   =      -663.69366427
  -exchange      EXHF   =         0.00000000
  -V(xc)+E(xc)   XCENC  =        39.25612385
  PAW double counting   =       455.07152327     -512.34190964
  entropy T*S    EENTRO =        -0.01299240
  eigenvalues    EBANDS =       -71.33871999
  atomic energy  EATOM  =       573.86041687
  ---------------------------------------------------
  free energy    TOTEN  =        26.32627450 eV

  energy without entropy =       26.33926691  energy(sigma->0) =       26.33277071
  exchange ACFDT corr.  =         0.00000000  see jH, gK, PRB 81, 115126


--------------------------------------------------------------------------------------------------------




--------------------------------------- Iteration      1(   2)  ---------------------------------------


    TRIAL :  cpu time      0.3457: real time      0.3457
    CORREC:  cpu time      0.0002: real time      0.0002
    --------------------------------------------
      LOOP:  cpu time      0.3519: real time      0.3614

 eigenvalue-minimisations  :   256
 total energy-change (2. order) :-0.1035698E+03  (-0.1029453E+03)
 number of electron      10.0000000 magnetization 
 augmentation part       10.0000000 magnetization 

 DIPCOR: dipole corrections for dipol
 direction  3 min pos     1,
 dipolmoment           0.000000      0.000000      0.000002 electrons x Angstroem
 Tr[quadrupol]     -1999.002067

 energy correction for charged system         0.000000 eV
 dipol+quadrupol energy correction           -0.000000 eV
 added-field ion interaction         -0.000000 eV  (added to PSCEN)


 Free energy of the ion-electron system (eV)
  ---------------------------------------------------
  alpha Z        PSCENC =         0.05170765
  Ewald energy   TEWEN  =       205.47378917
  -Hartree energ DENC   =      -663.69366427
  -exchange      EXHF   =         0.00000000
  -V(xc)+E(xc)   XCENC  =        39.25612385
  PAW double counting   =       455.07152327     -512.34190964
  entropy T*S    EENTRO =        -0.00000000
  eigenvalues    EBANDS =      -174.92151741
  atomic energy  EATOM  =       573.86041687
  ---------------------------------------------------
  free energy    TOTEN  =       -77.24353051 eV

  energy without entropy =      -77.24353051  energy(sigma->0) =      -77.24353051
  exchange ACFDT corr.  =         0.00000000  see jH, gK, PRB 81, 115126


--------------------------------------------------------------------------------------------------------




--------------------------------------- Iteration      1(   3)  ---------------------------------------


    TRIAL :  cpu time      0.1412: real time      0.1412
    CORREC:  cpu time      0.0002: real time      0.0002
    --------------------------------------------
      LOOP:  cpu time      0.1466: real time      0.1559

 eigenvalue-minimisations  :   128
 total energy-change (2. order) :-0.2392229E+01  (-0.2392229E+01)
 number of electron      10.0000000 magnetization 
 augmentation part       10.0000000 magnetization 

 DIPCOR: dipole corrections for dipol
 direction  3 min pos     1,
 dipolmoment           0.000000      0.000000      0.000002 electrons x Angstroem
 Tr[quadrupol]     -1999.002067

 energy correction for charged system         0.000000 eV
 dipol+quadrupol energy correction           -0.000000 eV
 added-field ion interaction         -0.000000 eV  (added to PSCEN)


 Free energy of the ion-electron system (eV)
  ---------------------------------------------------
  alpha Z        PSCENC =         0.05170765
  Ewald energy   TEWEN  =       205.47378917
  -Hartree energ DENC   =      -663.69366427
  -exchange      EXHF   =         0.00000000
  -V(xc)+E(xc)   XCENC  =        39.25612385
  PAW double counting   =       455.07152327     -512.34190964
  entropy T*S    EENTRO =        -0.00000000
  eigenvalues    EBANDS =      -177.31374647
  atomic energy  EATOM  =       573.86041687
  ---------------------------------------------------
  free energy    TOTEN  =       -79.63575957 eV

  energy without entropy =      -79.63575957  energy(sigma->0) =      -79.63575957
  exchange ACFDT corr.  =         0.00000000  see jH, gK, PRB 81, 115126


--------------------------------------------------------------------------------------------------------




--------------------------------------- Iteration      1(   4)  ---------------------------------------


    TRIAL :  cpu time      0.2194: real time      0.2194
    CORREC:  cpu time      0.0002: real time      0.0002
    --------------------------------------------
      LOOP:  cpu time      0.2338: real time      0.2339

 eigenvalue-minimisations  :   192
 total energy-change (2. order) :-0.1305529E-01  (-0.1305529E-01)
 number of electron      10.0000000 magnetization 
 augmentation part       10.0000000 magnetization 

 DIPCOR: dipole corrections for dipol
 direction  3 min pos     1,
 dipolmoment           0.000000      0.000000      0.000002 electrons x Angstroem
 Tr[quadrupol]     -1999.002067

 energy correction for charged system         0.000000 eV
 dipol+quadrupol energy correction           -0.000000 eV
 added-field ion interaction         -0.000000 eV  (added to PSCEN)


 Free energy of the ion-electron system (eV)
  ---------------------------------------------------
  alpha Z        PSCENC =         0.05170765
  Ewald energy   TEWEN  =       205.47378917
  -Hartree energ DENC   =      -663.69366427
  -exchange      EXHF   =         0.00000000
  -V(xc)+E(xc)   XCENC  =        39.25612385
  PAW double counting   =       455.07152327     -512.34190964
  entropy T*S    EENTRO =        -0.00000000
  eigenvalues    EBANDS =      -177.32680176
  atomic energy  EATOM  =       573.86041687
  ---------------------------------------------------
  free energy    TOTEN  =       -79.64881486 eV

  energy without entropy =      -79.64881486  energy(sigma->0) =      -79.64881486
  exchange ACFDT corr.  =         0.00000000  see jH, gK, PRB 81, 115126


--------------------------------------------------------------------------------------------------------




--------------------------------------- Iteration      1(   5)  ---------------------------------------


    POTLOK:  cpu time      0.1287: real time      0.1287
    SETDIJ:  cpu time      0.0756: real time      0.0756
    TRIAL :  cpu time      3.0217: real time      3.0240
    CORREC:  cpu time      0.0002: real time      0.0002
    CHARGE:  cpu time      0.0627: real time      0.0630
    --------------------------------------------
      LOOP:  cpu time      3.3036: real time      3.3066

 eigenvalue-minimisations  :   128
 total energy-change (2. order) : 0.5925757E+02  (-0.1119479E+00)
 number of electron       9.9999998 magnetization 
 augmentation part        0.7457278 magnetization 

 DIPCOR: dipole corrections for dipol
 direction  3 min pos     1,
 dipolmoment           0.000000      0.000000      0.000002 electrons x Angstroem
 Tr[quadrupol]     -1999.002067

 energy correction for charged system         0.000000 eV
 dipol+quadrupol energy correction           -0.000000 eV
 added-field ion interaction         -0.000000 eV  (added to PSCEN)


 Free energy of the ion-electron system (eV)
  ---------------------------------------------------
  alpha Z        PSCENC =         0.05170765
  Ewald energy   TEWEN  =       205.47378917
  -Hartree energ DENC   =      -663.69366427
  -exchange      EXHF   =        32.56585603
  -V(xc)+E(xc)   XCENC  =        30.11752076
  PAW double counting   =       463.58885713     -464.98532872
  entropy T*S    EENTRO =        -0.00000000
  eigenvalues    EBANDS =      -197.37039731
  atomic energy  EATOM  =       573.86041687
  ---------------------------------------------------
  free energy    TOTEN  =       -20.39124269 eV

  energy without entropy =      -20.39124269  energy(sigma->0) =      -20.39124269
  exchange ACFDT corr.  =        -0.00000000  see jH, gK, PRB 81, 115126


--------------------------------------------------------------------------------------------------------




--------------------------------------- Iteration      1(   6)  ---------------------------------------


    POTLOK:  cpu time      0.1351: real time      0.1351
    SETDIJ:  cpu time      0.0760: real time      0.0760
    TRIAL :  cpu time      9.3306: real time      9.3335
    CORREC:  cpu time      3.1382: real time      3.1403
    CHARGE:  cpu time      0.0602: real time      0.0602
    --------------------------------------------
      LOOP:  cpu time     12.7553: real time     12.7607

 eigenvalue-minimisations  :     0
 total energy-change (2. order) : 0.2554360E+01  (-0.1129903E+01)
 number of electron       9.9999998 magnetization 
 augmentation part        0.6876961 magnetization 

 DIPCOR: dipole corrections for dipol
 direction  3 min pos     1,
 dipolmoment           0.000000      0.000000      0.120985 electrons x Angstroem
 Tr[quadrupol]     -1998.729411

 energy correction for charged system         0.000000 eV
 dipol+quadrupol energy correction           -0.000169 eV
 added-field ion interaction         -0.003153 eV  (added to PSCEN)


 Free energy of the ion-electron system (eV)
  ---------------------------------------------------
  alpha Z        PSCENC =         0.04612729
  Ewald energy   TEWEN  =       205.47378917
  -Hartree energ DENC   =      -717.59209843
  -exchange      EXHF   =        32.61481868
  -V(xc)+E(xc)   XCENC  =        32.38457217
  PAW double counting   =       911.39269848     -913.13142684
  entropy T*S    EENTRO =        -0.00000000
  eigenvalues    EBANDS =      -142.88577965
  atomic energy  EATOM  =       573.86041687
  ---------------------------------------------------
  free energy    TOTEN  =       -17.83688225 eV

  energy without entropy =      -17.83688225  energy(sigma->0) =      -17.83688225
  exchange ACFDT corr.  =        -0.00000000  see jH, gK, PRB 81, 115126


--------------------------------------------------------------------------------------------------------




--------------------------------------- Iteration      1(   7)  ---------------------------------------


    POTLOK:  cpu time      0.1337: real time      0.1337
    SETDIJ:  cpu time      0.0760: real time      0.0760
    TRIAL :  cpu time      2.9852: real time      2.9869
    CORREC:  cpu time      3.1320: real time      3.1337
    CHARGE:  cpu time      0.0589: real time      0.0589
    --------------------------------------------
      LOOP:  cpu time      6.3921: real time      6.4044

 eigenvalue-minimisations  :     0
 total energy-change (2. order) :-0.1143234E+01  (-0.1765462E+00)
 number of electron       9.9999998 magnetization 
 augmentation part        0.6639891 magnetization 

 DIPCOR: dipole corrections for dipol
 direction  3 min pos     1,
 dipolmoment           0.000000      0.000000      0.088351 electrons x Angstroem
 Tr[quadrupol]     -1998.893469

 energy correction for charged system         0.000000 eV
 dipol+quadrupol energy correction           -0.000090 eV
 added-field ion interaction         -0.002303 eV  (added to PSCEN)


 Free energy of the ion-electron system (eV)
  ---------------------------------------------------
  alpha Z        PSCENC =         0.04766432
  Ewald energy   TEWEN  =       205.47378917
  -Hartree energ DENC   =      -690.27657767
  -exchange      EXHF   =        31.42298543
  -V(xc)+E(xc)   XCENC  =        31.26331119
  PAW double counting   =       888.96271611     -890.54494394
  entropy T*S    EENTRO =        -0.00000000
  eigenvalues    EBANDS =      -169.18947824
  atomic energy  EATOM  =       573.86041687
  ---------------------------------------------------
  free energy    TOTEN  =       -18.98011675 eV

  energy without entropy =      -18.98011675  energy(sigma->0) =      -18.98011675
  exchange ACFDT corr.  =         0.00000000  see jH, gK, PRB 81, 115126


--------------------------------------------------------------------------------------------------------




--------------------------------------- Iteration      1(   8)  ---------------------------------------


    POTLOK:  cpu time      0.1514: real time      0.1514
    SETDIJ:  cpu time      0.0760: real time      0.0760
    TRIAL :  cpu time      2.9842: real time      2.9858
    CORREC:  cpu time      3.1472: real time      3.1488
    CHARGE:  cpu time      0.0585: real time      0.0585
    --------------------------------------------
      LOOP:  cpu time      6.4321: real time      6.4357

 eigenvalue-minimisations  :     0
 total energy-change (2. order) :-0.1766660E+00  (-0.7883991E-01)
 number of electron       9.9999998 magnetization 
 augmentation part        0.6580068 magnetization 

 DIPCOR: dipole corrections for dipol
 direction  3 min pos     1,
 dipolmoment           0.000000      0.000000      0.024672 electrons x Angstroem
 Tr[quadrupol]     -1998.939774

 energy correction for charged system         0.000000 eV
 dipol+quadrupol energy correction           -0.000007 eV
 added-field ion interaction         -0.000643 eV  (added to PSCEN)


 Free energy of the ion-electron system (eV)
  ---------------------------------------------------
  alpha Z        PSCENC =         0.04961059
  Ewald energy   TEWEN  =       205.47378917
  -Hartree energ DENC   =      -687.82389048
  -exchange      EXHF   =        31.31538472
  -V(xc)+E(xc)   XCENC  =        31.15498697
  PAW double counting   =       896.77322697     -898.22422085
  entropy T*S    EENTRO =        -0.00000000
  eigenvalues    EBANDS =      -171.73608669
  atomic energy  EATOM  =       573.86041687
  ---------------------------------------------------
  free energy    TOTEN  =       -19.15678271 eV

  energy without entropy =      -19.15678271  energy(sigma->0) =      -19.15678271
  exchange ACFDT corr.  =        -0.00000000  see jH, gK, PRB 81, 115126


--------------------------------------------------------------------------------------------------------




--------------------------------------- Iteration      1(   9)  ---------------------------------------


    POTLOK:  cpu time      0.1332: real time      0.1332
    SETDIJ:  cpu time      0.0817: real time      0.0817
    TRIAL :  cpu time      2.9712: real time      2.9729
    CORREC:  cpu time      3.0850: real time      3.0866
    CHARGE:  cpu time      0.0597: real time      0.0597
    --------------------------------------------
      LOOP:  cpu time      6.3363: real time      6.3487

 eigenvalue-minimisations  :     0
 total energy-change (2. order) :-0.7883381E-01  (-0.2753200E-01)
 number of electron       9.9999998 magnetization 
 augmentation part        0.6582700 magnetization 

 DIPCOR: dipole corrections for dipol
 direction  3 min pos     1,
 dipolmoment           0.000000      0.000000     -0.000572 electrons x Angstroem
 Tr[quadrupol]     -1998.942154

 energy correction for charged system         0.000000 eV
 dipol+quadrupol energy correction           -0.000000 eV
 added-field ion interaction          0.000015 eV  (added to PSCEN)


 Free energy of the ion-electron system (eV)
  ---------------------------------------------------
  alpha Z        PSCENC =         0.05118561
  Ewald energy   TEWEN  =       205.47378917
  -Hartree energ DENC   =      -687.33210381
  -exchange      EXHF   =        31.28197130
  -V(xc)+E(xc)   XCENC  =        31.13380427
  PAW double counting   =       904.01835466     -905.42953796
  entropy T*S    EENTRO =        -0.00000000
  eigenvalues    EBANDS =      -172.29349663
  atomic energy  EATOM  =       573.86041687
  ---------------------------------------------------
  free energy    TOTEN  =       -19.23561652 eV

  energy without entropy =      -19.23561652  energy(sigma->0) =      -19.23561652
  exchange ACFDT corr.  =         0.00000000  see jH, gK, PRB 81, 115126


--------------------------------------------------------------------------------------------------------




--------------------------------------- Iteration      1(  10)  ---------------------------------------


    POTLOK:  cpu time      0.1338: real time      0.1338
    SETDIJ:  cpu time      0.0760: real time      0.0760
    TRIAL :  cpu time      2.8973: real time      2.8991
    CORREC:  cpu time      3.0565: real time      3.0582
    CHARGE:  cpu time      0.0596: real time      0.0596
    --------------------------------------------
      LOOP:  cpu time      6.2380: real time      6.2420

 eigenvalue-minimisations  :     0
 total energy-change (2. order) :-0.2751438E-01  (-0.1137313E-01)
 number of electron       9.9999998 magnetization 
 augmentation part        0.6579760 magnetization 

 DIPCOR: dipole corrections for dipol
 direction  3 min pos     1,
 dipolmoment           0.000000      0.000000     -0.014753 electrons x Angstroem
 Tr[quadrupol]     -1998.930377

 energy correction for charged system         0.000000 eV
 dipol+quadrupol energy correction           -0.000003 eV
 added-field ion interaction          0.000385 eV  (added to PSCEN)


 Free energy of the ion-electron system (eV)
  ---------------------------------------------------
  alpha Z        PSCENC =         0.05188561
  Ewald energy   TEWEN  =       205.47378917
  -Hartree energ DENC   =      -687.06033409
  -exchange      EXHF   =        31.26187882
  -V(xc)+E(xc)   XCENC  =        31.12837085
  PAW double counting   =       906.32015335     -907.72844646
  entropy T*S    EENTRO =        -0.00000000
  eigenvalues    EBANDS =      -172.57084503
  atomic energy  EATOM  =       573.86041687
  ---------------------------------------------------
  free energy    TOTEN  =       -19.26313090 eV

  energy without entropy =      -19.26313090  energy(sigma->0) =      -19.26313090
  exchange ACFDT corr.  =        -0.00000000  see jH, gK, PRB 81, 115126


--------------------------------------------------------------------------------------------------------




--------------------------------------- Iteration      1(  11)  ---------------------------------------


    POTLOK:  cpu time      0.1342: real time      0.1342
    SETDIJ:  cpu time      0.0760: real time      0.0760
    TRIAL :  cpu time      2.8360: real time      2.8378
    CORREC:  cpu time      3.2757: real time      3.2778
    CHARGE:  cpu time      0.0605: real time      0.0605
    --------------------------------------------
      LOOP:  cpu time      6.3878: real time      6.4017

 eigenvalue-minimisations  :     0
 total energy-change (2. order) :-0.1136444E-01  (-0.4213573E-02)
 number of electron       9.9999998 magnetization 
 augmentation part        0.6583131 magnetization 

 DIPCOR: dipole corrections for dipol
 direction  3 min pos     1,
 dipolmoment           0.000000      0.000000     -0.018106 electrons x Angstroem
 Tr[quadrupol]     -1998.925762

 energy correction for charged system         0.000000 eV
 dipol+quadrupol energy correction           -0.000004 eV
 added-field ion interaction          0.000472 eV  (added to PSCEN)


 Free energy of the ion-electron system (eV)
  ---------------------------------------------------
  alpha Z        PSCENC =         0.05214516
  Ewald energy   TEWEN  =       205.47378917
  -Hartree energ DENC   =      -686.55979152
  -exchange      EXHF   =        31.23599530
  -V(xc)+E(xc)   XCENC  =        31.11323081
  PAW double counting   =       905.63862804     -907.04587606
  entropy T*S    EENTRO =        -0.00000000
  eigenvalues    EBANDS =      -173.04303310
  atomic energy  EATOM  =       573.86041687
  ---------------------------------------------------
  free energy    TOTEN  =       -19.27449534 eV

  energy without entropy =      -19.27449534  energy(sigma->0) =      -19.27449534
  exchange ACFDT corr.  =        -0.00000000  see jH, gK, PRB 81, 115126


--------------------------------------------------------------------------------------------------------




--------------------------------------- Iteration      1(  12)  ---------------------------------------


    POTLOK:  cpu time      0.1335: real time      0.1335
    SETDIJ:  cpu time      0.0759: real time      0.0759
    TRIAL :  cpu time      3.4322: real time      3.4341
    CORREC:  cpu time      3.6156: real time      3.6177
    CHARGE:  cpu time      0.0582: real time      0.0582
    --------------------------------------------
      LOOP:  cpu time      7.3301: real time      7.3343

 eigenvalue-minimisations  :     0
 total energy-change (2. order) :-0.4211742E-02  (-0.1588010E-02)
 number of electron       9.9999998 magnetization 
 augmentation part        0.6586470 magnetization 

 DIPCOR: dipole corrections for dipol
 direction  3 min pos     1,
 dipolmoment           0.000000      0.000000     -0.017422 electrons x Angstroem
 Tr[quadrupol]     -1998.924595

 energy correction for charged system         0.000000 eV
 dipol+quadrupol energy correction           -0.000003 eV
 added-field ion interaction          0.000454 eV  (added to PSCEN)


 Free energy of the ion-electron system (eV)
  ---------------------------------------------------
  alpha Z        PSCENC =         0.05218846
  Ewald energy   TEWEN  =       205.47378917
  -Hartree energ DENC   =      -686.41382413
  -exchange      EXHF   =        31.22533188
  -V(xc)+E(xc)   XCENC  =        31.10821280
  PAW double counting   =       904.42557372     -905.83628607
  entropy T*S    EENTRO =        -0.00000000
  eigenvalues    EBANDS =      -173.17410979
  atomic energy  EATOM  =       573.86041687
  ---------------------------------------------------
  free energy    TOTEN  =       -19.27870708 eV

  energy without entropy =      -19.27870708  energy(sigma->0) =      -19.27870708
  exchange ACFDT corr.  =        -0.00000000  see jH, gK, PRB 81, 115126


--------------------------------------------------------------------------------------------------------




--------------------------------------- Iteration      1(  13)  ---------------------------------------


    POTLOK:  cpu time      0.1346: real time      0.1346
    SETDIJ:  cpu time      0.0759: real time      0.0759
    TRIAL :  cpu time      3.4753: real time      3.4775
    CORREC:  cpu time      3.7097: real time      3.7122
    CHARGE:  cpu time      0.0597: real time      0.0597
    --------------------------------------------
      LOOP:  cpu time      7.4702: real time      7.4754

 eigenvalue-minimisations  :     0
 total energy-change (2. order) :-0.1587645E-02  (-0.5716755E-03)
 number of electron       9.9999998 magnetization 
 augmentation part        0.6586655 magnetization 

 DIPCOR: dipole corrections for dipol
 direction  3 min pos     1,
 dipolmoment           0.000000      0.000000     -0.015468 electrons x Angstroem
 Tr[quadrupol]     -1998.923148

 energy correction for charged system         0.000000 eV
 dipol+quadrupol energy correction           -0.000003 eV
 added-field ion interaction          0.000403 eV  (added to PSCEN)


 Free energy of the ion-electron system (eV)
  ---------------------------------------------------
  alpha Z        PSCENC =         0.05214575
  Ewald energy   TEWEN  =       205.47378917
  -Hartree energ DENC   =      -686.30061701
  -exchange      EXHF   =        31.21734928
  -V(xc)+E(xc)   XCENC  =        31.10286122
  PAW double counting   =       903.48697454     -904.90137279
  entropy T*S    EENTRO =        -0.00000000
  eigenvalues    EBANDS =      -173.27184177
  atomic energy  EATOM  =       573.86041687
  ---------------------------------------------------
  free energy    TOTEN  =       -19.28029472 eV

  energy without entropy =      -19.28029472  energy(sigma->0) =      -19.28029472
  exchange ACFDT corr.  =        -0.00000000  see jH, gK, PRB 81, 115126


--------------------------------------------------------------------------------------------------------




--------------------------------------- Iteration      1(  14)  ---------------------------------------


    POTLOK:  cpu time      0.1361: real time      0.1361
    SETDIJ:  cpu time      0.0760: real time      0.0760
    TRIAL :  cpu time      3.3973: real time      3.3995
    CORREC:  cpu time      3.6419: real time      3.6441
    CHARGE:  cpu time      0.0593: real time      0.0593
    --------------------------------------------
      LOOP:  cpu time      7.3256: real time      7.3302

 eigenvalue-minimisations  :     0
 total energy-change (2. order) :-0.5716882E-03  (-0.1790459E-03)
 number of electron       9.9999998 magnetization 
 augmentation part        0.6585902 magnetization 

 DIPCOR: dipole corrections for dipol
 direction  3 min pos     1,
 dipolmoment           0.000000      0.000000     -0.014203 electrons x Angstroem
 Tr[quadrupol]     -1998.922482

 energy correction for charged system         0.000000 eV
 dipol+quadrupol energy correction           -0.000002 eV
 added-field ion interaction          0.000370 eV  (added to PSCEN)


 Free energy of the ion-electron system (eV)
  ---------------------------------------------------
  alpha Z        PSCENC =         0.05209348
  Ewald energy   TEWEN  =       205.47378917
  -Hartree energ DENC   =      -686.21510901
  -exchange      EXHF   =        31.21263020
  -V(xc)+E(xc)   XCENC  =        31.09879306
  PAW double counting   =       902.95769506     -904.37328805
  entropy T*S    EENTRO =        -0.00000000
  eigenvalues    EBANDS =      -173.34788720
  atomic energy  EATOM  =       573.86041687
  ---------------------------------------------------
  free energy    TOTEN  =       -19.28086641 eV

  energy without entropy =      -19.28086641  energy(sigma->0) =      -19.28086641
  exchange ACFDT corr.  =        -0.00000000  see jH, gK, PRB 81, 115126


--------------------------------------------------------------------------------------------------------




--------------------------------------- Iteration      1(  15)  ---------------------------------------


    POTLOK:  cpu time      0.1330: real time      0.1330
    SETDIJ:  cpu time      0.0761: real time      0.0761
    TRIAL :  cpu time      3.4844: real time      3.4865
    CORREC:  cpu time      3.5774: real time      3.5797
    CHARGE:  cpu time      0.0577: real time      0.0577
    --------------------------------------------
      LOOP:  cpu time      7.3342: real time      7.3483

 eigenvalue-minimisations  :     0
 total energy-change (2. order) :-0.1789255E-03  (-0.4942257E-04)
 number of electron       9.9999998 magnetization 
 augmentation part        0.6584502 magnetization 

 DIPCOR: dipole corrections for dipol
 direction  3 min pos     1,
 dipolmoment           0.000000      0.000000     -0.013648 electrons x Angstroem
 Tr[quadrupol]     -1998.922310

 energy correction for charged system         0.000000 eV
 dipol+quadrupol energy correction           -0.000002 eV
 added-field ion interaction          0.000356 eV  (added to PSCEN)


 Free energy of the ion-electron system (eV)
  ---------------------------------------------------
  alpha Z        PSCENC =         0.05206685
  Ewald energy   TEWEN  =       205.47378917
  -Hartree energ DENC   =      -686.24300742
  -exchange      EXHF   =        31.21396646
  -V(xc)+E(xc)   XCENC  =        31.09962559
  PAW double counting   =       902.85796597     -904.27308519
  entropy T*S    EENTRO =        -0.00000000
  eigenvalues    EBANDS =      -173.32278365
  atomic energy  EATOM  =       573.86041687
  ---------------------------------------------------
  free energy    TOTEN  =       -19.28104534 eV

  energy without entropy =      -19.28104534  energy(sigma->0) =      -19.28104534
  exchange ACFDT corr.  =        -0.00000000  see jH, gK, PRB 81, 115126


--------------------------------------------------------------------------------------------------------




--------------------------------------- Iteration      1(  16)  ---------------------------------------


    POTLOK:  cpu time      0.1354: real time      0.1354
    SETDIJ:  cpu time      0.0759: real time      0.0759
    TRIAL :  cpu time      4.0586: real time      4.0793
    CORREC:  cpu time      3.2662: real time      3.2668
    CHARGE:  cpu time      0.0578: real time      0.0578
    --------------------------------------------
      LOOP:  cpu time      7.5979: real time      7.6303

 eigenvalue-minimisations  :     0
 total energy-change (2. order) :-0.4940365E-04  (-0.1356957E-04)
 number of electron       9.9999998 magnetization 
 augmentation part        0.6583965 magnetization 

 DIPCOR: dipole corrections for dipol
 direction  3 min pos     1,
 dipolmoment           0.000000      0.000000     -0.013526 electrons x Angstroem
 Tr[quadrupol]     -1998.922296

 energy correction for charged system         0.000000 eV
 dipol+quadrupol energy correction           -0.000002 eV
 added-field ion interaction          0.000353 eV  (added to PSCEN)


 Free energy of the ion-electron system (eV)
  ---------------------------------------------------
  alpha Z        PSCENC =         0.05205963
  Ewald energy   TEWEN  =       205.47378917
  -Hartree energ DENC   =      -686.22625084
  -exchange      EXHF   =        31.21342655
  -V(xc)+E(xc)   XCENC  =        31.09876213
  PAW double counting   =       902.84091654     -904.25539866
  entropy T*S    EENTRO =        -0.00000000
  eigenvalues    EBANDS =      -173.33881614
  atomic energy  EATOM  =       573.86041687
  ---------------------------------------------------
  free energy    TOTEN  =       -19.28109474 eV

  energy without entropy =      -19.28109474  energy(sigma->0) =      -19.28109474
  exchange ACFDT corr.  =         0.00000000  see jH, gK, PRB 81, 115126


--------------------------------------------------------------------------------------------------------




--------------------------------------- Iteration      1(  17)  ---------------------------------------


    POTLOK:  cpu time      0.1341: real time      0.1342
    SETDIJ:  cpu time      0.0760: real time      0.0760
    TRIAL :  cpu time      5.8929: real time      5.8939
    CORREC:  cpu time      4.4270: real time      4.4276
    CHARGE:  cpu time      0.0580: real time      0.0580
    --------------------------------------------
      LOOP:  cpu time     10.5933: real time     10.6049

 eigenvalue-minimisations  :     0
 total energy-change (2. order) :-0.1356683E-04  (-0.4414297E-05)
 number of electron       9.9999998 magnetization 
 augmentation part        0.6583948 magnetization 

 DIPCOR: dipole corrections for dipol
 direction  3 min pos     1,
 dipolmoment           0.000000      0.000000     -0.013521 electrons x Angstroem
 Tr[quadrupol]     -1998.922353

 energy correction for charged system         0.000000 eV
 dipol+quadrupol energy correction           -0.000002 eV
 added-field ion interaction          0.000352 eV  (added to PSCEN)


 Free energy of the ion-electron system (eV)
  ---------------------------------------------------
  alpha Z        PSCENC =         0.05205780
  Ewald energy   TEWEN  =       205.47378917
  -Hartree energ DENC   =      -686.22263280
  -exchange      EXHF   =        31.21336965
  -V(xc)+E(xc)   XCENC  =        31.09851100
  PAW double counting   =       902.87656572     -904.29071555
  entropy T*S    EENTRO =        -0.00000000
  eigenvalues    EBANDS =      -173.34247017
  atomic energy  EATOM  =       573.86041687
  ---------------------------------------------------
  free energy    TOTEN  =       -19.28110831 eV

  energy without entropy =      -19.28110831  energy(sigma->0) =      -19.28110831
  exchange ACFDT corr.  =         0.00000000  see jH, gK, PRB 81, 115126


--------------------------------------------------------------------------------------------------------




--------------------------------------- Iteration      1(  18)  ---------------------------------------


    POTLOK:  cpu time      0.1363: real time      0.1363
    SETDIJ:  cpu time      0.0760: real time      0.0760
    TRIAL :  cpu time      2.9795: real time      2.9800
    CORREC:  cpu time      3.4742: real time      3.4751
    CHARGE:  cpu time      0.0588: real time      0.0588
    --------------------------------------------
      LOOP:  cpu time      6.7453: real time      6.7561

 eigenvalue-minimisations  :     0
 total energy-change (2. order) :-0.4410916E-05  (-0.1360202E-05)
 number of electron       9.9999998 magnetization 
 augmentation part        0.6583988 magnetization 

 DIPCOR: dipole corrections for dipol
 direction  3 min pos     1,
 dipolmoment           0.000000      0.000000     -0.013551 electrons x Angstroem
 Tr[quadrupol]     -1998.922380

 energy correction for charged system         0.000000 eV
 dipol+quadrupol energy correction           -0.000002 eV
 added-field ion interaction          0.000353 eV  (added to PSCEN)


 Free energy of the ion-electron system (eV)
  ---------------------------------------------------
  alpha Z        PSCENC =         0.05205806
  Ewald energy   TEWEN  =       205.47378917
  -Hartree energ DENC   =      -686.23068406
  -exchange      EXHF   =        31.21380417
  -V(xc)+E(xc)   XCENC  =        31.09879934
  PAW double counting   =       902.93428366     -904.34830030
  entropy T*S    EENTRO =        -0.00000000
  eigenvalues    EBANDS =      -173.33527964
  atomic energy  EATOM  =       573.86041687
  ---------------------------------------------------
  free energy    TOTEN  =       -19.28111272 eV

  energy without entropy =      -19.28111272  energy(sigma->0) =      -19.28111272
  exchange ACFDT corr.  =        -0.00000000  see jH, gK, PRB 81, 115126


--------------------------------------------------------------------------------------------------------




--------------------------------------- Iteration      1(  19)  ---------------------------------------


    POTLOK:  cpu time      0.1331: real time      0.1331
    SETDIJ:  cpu time      0.0761: real time      0.0761
    TRIAL :  cpu time      4.0465: real time      4.0470
    CORREC:  cpu time      3.0500: real time      3.0503
    CHARGE:  cpu time      0.0578: real time      0.0578
    --------------------------------------------
      LOOP:  cpu time      7.3689: real time      7.3801

 eigenvalue-minimisations  :     0
 total energy-change (2. order) :-0.1364471E-05  (-0.4860317E-06)
 number of electron       9.9999998 magnetization 
 augmentation part        0.6584047 magnetization 

 DIPCOR: dipole corrections for dipol
 direction  3 min pos     1,
 dipolmoment           0.000000      0.000000     -0.013569 electrons x Angstroem
 Tr[quadrupol]     -1998.922383

 energy correction for charged system         0.000000 eV
 dipol+quadrupol energy correction           -0.000002 eV
 added-field ion interaction          0.000354 eV  (added to PSCEN)


 Free energy of the ion-electron system (eV)
  ---------------------------------------------------
  alpha Z        PSCENC =         0.05205892
  Ewald energy   TEWEN  =       205.47378917
  -Hartree energ DENC   =      -686.23148192
  -exchange      EXHF   =        31.21389018
  -V(xc)+E(xc)   XCENC  =        31.09883099
  PAW double counting   =       902.96958782     -904.38360197
  entropy T*S    EENTRO =        -0.00000000
  eigenvalues    EBANDS =      -173.33460414
  atomic energy  EATOM  =       573.86041687
  ---------------------------------------------------
  free energy    TOTEN  =       -19.28111408 eV

  energy without entropy =      -19.28111408  energy(sigma->0) =      -19.28111408
  exchange ACFDT corr.  =        -0.00000000  see jH, gK, PRB 81, 115126


--------------------------------------------------------------------------------------------------------




--------------------------------------- Iteration      1(  20)  ---------------------------------------


    POTLOK:  cpu time      0.1345: real time      0.1345
    SETDIJ:  cpu time      0.0791: real time      0.0791
    TRIAL :  cpu time      2.9690: real time      2.9697
    CORREC:  cpu time      3.1642: real time      3.1645
    CHARGE:  cpu time      0.0569: real time      0.0569
    --------------------------------------------
      LOOP:  cpu time      6.4092: real time      6.4197

 eigenvalue-minimisations  :     0
 total energy-change (2. order) :-0.4879564E-06  (-0.1794608E-06)
 number of electron       9.9999998 magnetization 
 augmentation part        0.6584143 magnetization 

 DIPCOR: dipole corrections for dipol
 direction  3 min pos     1,
 dipolmoment           0.000000      0.000000     -0.013566 electrons x Angstroem
 Tr[quadrupol]     -1998.922406

 energy correction for charged system         0.000000 eV
 dipol+quadrupol energy correction           -0.000002 eV
 added-field ion interaction          0.000354 eV  (added to PSCEN)


 Free energy of the ion-electron system (eV)
  ---------------------------------------------------
  alpha Z        PSCENC =         0.05205926
  Ewald energy   TEWEN  =       205.47378917
  -Hartree energ DENC   =      -686.23152248
  -exchange      EXHF   =        31.21391846
  -V(xc)+E(xc)   XCENC  =        31.09883902
  PAW double counting   =       902.99164217     -904.40568701
  entropy T*S    EENTRO =        -0.00000000
  eigenvalues    EBANDS =      -173.33457003
  atomic energy  EATOM  =       573.86041687
  ---------------------------------------------------
  free energy    TOTEN  =       -19.28111457 eV

  energy without entropy =      -19.28111457  energy(sigma->0) =      -19.28111457
  exchange ACFDT corr.  =        -0.00000000  see jH, gK, PRB 81, 115126


--------------------------------------------------------------------------------------------------------




--------------------------------------- Iteration      1(  21)  ---------------------------------------


    POTLOK:  cpu time      0.1336: real time      0.1336
    SETDIJ:  cpu time      0.0761: real time      0.0761
    TRIAL :  cpu time      2.9583: real time      2.9587
    CORREC:  cpu time      2.7798: real time      2.7805
    CHARGE:  cpu time      0.0619: real time      0.0619
    --------------------------------------------
      LOOP:  cpu time      6.0247: real time      6.0261

 eigenvalue-minimisations  :     0
 total energy-change (2. order) :-0.1810567E-06  (-0.5284908E-07)
 number of electron       9.9999998 magnetization 
 augmentation part        0.6584194 magnetization 

 DIPCOR: dipole corrections for dipol
 direction  3 min pos     1,
 dipolmoment           0.000000      0.000000     -0.013562 electrons x Angstroem
 Tr[quadrupol]     -1998.922422

 energy correction for charged system         0.000000 eV
 dipol+quadrupol energy correction           -0.000002 eV
 added-field ion interaction          0.000353 eV  (added to PSCEN)


 Free energy of the ion-electron system (eV)
  ---------------------------------------------------
  alpha Z        PSCENC =         0.05205913
  Ewald energy   TEWEN  =       205.47378917
  -Hartree energ DENC   =      -686.23338172
  -exchange      EXHF   =        31.21400804
  -V(xc)+E(xc)   XCENC  =        31.09891816
  PAW double counting   =       903.00556462     -904.41965020
  entropy T*S    EENTRO =        -0.00000000
  eigenvalues    EBANDS =      -173.33283883
  atomic energy  EATOM  =       573.86041687
  ---------------------------------------------------
  free energy    TOTEN  =       -19.28111475 eV

  energy without entropy =      -19.28111475  energy(sigma->0) =      -19.28111475
  exchange ACFDT corr.  =        -0.00000000  see jH, gK, PRB 81, 115126


--------------------------------------------------------------------------------------------------------




--------------------------------------- Iteration      1(  22)  ---------------------------------------


    POTLOK:  cpu time      0.1317: real time      0.1317
    SETDIJ:  cpu time      0.0762: real time      0.0762
    TRIAL :  cpu time      4.0792: real time      4.0796
    CORREC:  cpu time      3.3512: real time      3.3525
    EDDIAG:  cpu time      2.4750: real time      2.4759
    CHARGE:  cpu time      0.0566: real time      0.0566
    --------------------------------------------
      LOOP:  cpu time     10.1761: real time     10.1872

 eigenvalue-minimisations  :     0
 total energy-change (2. order) :-0.5227133E-07  (-0.1767316E-07)
 number of electron       9.9999998 magnetization 
 augmentation part        0.6584214 magnetization 

 DIPCOR: dipole corrections for dipol
 direction  3 min pos     1,
 dipolmoment           0.000000      0.000000     -0.013559 electrons x Angstroem
 Tr[quadrupol]     -1998.922425

 energy correction for charged system         0.000000 eV
 dipol+quadrupol energy correction           -0.000002 eV
 added-field ion interaction          0.000353 eV  (added to PSCEN)


 Free energy of the ion-electron system (eV)
  ---------------------------------------------------
  alpha Z        PSCENC =         0.05205905
  Ewald energy   TEWEN  =       205.47378917
  -Hartree energ DENC   =      -686.23390903
  -exchange      EXHF   =        31.21404080
  -V(xc)+E(xc)   XCENC  =        31.09894101
  PAW double counting   =       903.00919475     -904.42330943
  entropy T*S    EENTRO =        -0.00000000
  eigenvalues    EBANDS =      -173.33232940
  atomic energy  EATOM  =       573.86041687
  ---------------------------------------------------
  free energy    TOTEN  =       -19.28111481 eV

  energy without entropy =      -19.28111481  energy(sigma->0) =      -19.28111481
  exchange ACFDT corr.  =        -0.00000000  see jH, gK, PRB 81, 115126


--------------------------------------------------------------------------------------------------------


  average scaling for gradient   1.8651


 average (electrostatic) potential at core
  the test charge radii are     0.6991  0.7215
  (the norm of the test charge is              1.0000)
       1 -57.6249       2 -76.9081



 E-fermi : -10.4658     XC(G=0):  -0.0633     alpha+bet : -0.0207

 Fermi energy:       -10.4658087349

 k-point     1 :       0.0000    0.0000    0.0000
  band No.  band energies     occupation 
      1     -32.7214      2.00000
      2     -16.2265      2.00000
      3     -13.4860      2.00000
      4     -13.4860      2.00000
      5     -10.7462      2.00000
      6      -0.8089      0.00000
      7      -0.8089      0.00000
      8      -0.0212      0.00000
      9       0.2747      0.00000
     10       0.3260      0.00000
     11       0.3646      0.00000
     12       0.3697      0.00000
     13       0.3697      0.00000
     14       0.3809      0.00000
     15       0.6441      0.00000
     16       0.6752      0.00000
     17       0.6879      0.00000
     18       0.6879      0.00000
     19       0.7156      0.00000
     20       0.7180      0.00000
     21       0.7180      0.00000
     22       0.7206      0.00000
     23       0.7485      0.00000
     24       0.7485      0.00000
     25       0.7499      0.00000
     26       0.7516      0.00000
     27       1.0485      0.00000
     28       1.0637      0.00000
     29       1.0637      0.00000
     30       1.0784      0.00000
     31       1.0809      0.00000
     32       1.0917      0.00000
     33       1.0917      0.00000
     34       1.0946      0.00000
     35       1.3138      0.00000
     36       1.3330      0.00000
     37       1.4774      0.00000
     38       1.4774      0.00000
     39       1.4817      0.00000
     40       1.5069      0.00000
     41       1.6160      0.00000
     42       1.6812      0.00000
     43       1.7019      0.00000
     44       1.7019      0.00000
     45       1.7236      0.00000
     46       1.7236      0.00000
     47       1.7262      0.00000
     48       1.7298      0.00000
     49       1.7848      0.00000
     50       1.7848      0.00000
     51       1.7969      0.00000
     52       1.8317      0.00000
     53       1.8373      0.00000
     54       1.8412      0.00000
     55       1.8412      0.00000
     56       1.8427      0.00000
     57       1.8520      0.00000
     58       1.8665      0.00000
     59       1.8665      0.00000
     60       1.8793      0.00000
     61       1.8838      0.00000
     62       1.8838      0.00000
     63       1.8860      0.00000
     64       1.8896      0.00000


--------------------------------------------------------------------------------------------------------


 soft charge-density along one line, spin component           1
         0         1         2         3         4         5         6         7         8         9
 total charge-density along one line

 pseudopotential strength for first ion, spin component:           1
 10.136  13.482   0.000   0.037  -0.000  -0.000  -0.111   0.000
 13.482  17.931   0.000   0.048  -0.000  -0.000  -0.148   0.000
  0.000   0.000  -4.343  -0.000  -0.000   8.477   0.000   0.000
  0.037   0.048  -0.000  -4.381  -0.000   0.000   8.542   0.000
 -0.000  -0.000  -0.000  -0.000  -4.343   0.000   0.000   8.477
 -0.000  -0.000   8.477   0.000   0.000 -18.669  -0.000  -0.000
 -0.111  -0.148   0.000   8.542   0.000  -0.000 -18.783  -0.000
  0.000   0.000   0.000   0.000   8.477  -0.000  -0.000 -18.669
 total augmentation occupancy for first ion, spin component:           1
  8.211  -3.794   0.000   2.186  -0.000   0.000   0.413  -0.000
 -3.794   2.113  -0.000  -1.657   0.000  -0.000  -0.251   0.000
  0.000  -0.000   0.825  -0.000  -0.000   0.068   0.000  -0.000
  2.186  -1.657  -0.000   2.299  -0.000  -0.000   0.221  -0.000
 -0.000   0.000  -0.000  -0.000   0.825  -0.000  -0.000   0.068
  0.000  -0.000   0.068  -0.000  -0.000   0.006   0.000  -0.000
  0.413  -0.251   0.000   0.221  -0.000   0.000   0.031  -0.000
 -0.000   0.000  -0.000  -0.000   0.068  -0.000  -0.000   0.006


------------------------ aborting loop because EDIFF is reached ----------------------------------------


    FORLOC:  cpu time      0.0478: real time      0.0478
    FORHF :  cpu time      0.2520: real time      0.2536
    FORNL :  cpu time      0.0035: real time      0.0035
    FORCOR:  cpu time      0.1892: real time      0.1895
    OFIELD:  cpu time      0.0003: real time      0.0003
    FORVDW:  cpu time      0.0042: real time      0.0192

 VOLUME and BASIS-vectors are now :
 -----------------------------------------------------------------------------
  energy-cutoff  :      600.00
  volume of cell :     8450.53
      direct lattice vectors                 reciprocal lattice vectors
    20.000000000  0.000000000  0.000000000     0.050000000  0.000000000  0.000000000
     0.000000000 20.000000000  0.000000000     0.000000000  0.050000000  0.000000000
     0.000000000  0.000000000 21.126328287     0.000000000  0.000000000  0.047334302

  length of vectors
    20.000000000 20.000000000 21.126328287     0.050000000  0.050000000  0.047334302


 FORCES acting on ions:
    Electron-Ion                     Ewald-Force                    Non-Local-Force
 -----------------------------------------------------------------------------------------------
   0.206E-07 -.355E-07 0.241E+03   -.238E-16 -.127E-16 -.270E+03   -.124E-07 0.655E-07 0.268E+02
   -.131E-06 0.101E-06 -.208E+03   0.831E-17 -.116E-17 0.270E+03   0.106E-06 -.118E-06 -.533E+02
 -----------------------------------------------------------------------------------------------
   -.110E-06 0.651E-07 0.334E+02   -.155E-16 -.139E-16 0.000E+00   0.940E-07 -.526E-07 -.264E+02


 POSITION                                       TOTAL-FORCE (eV/Angst)
 -----------------------------------------------------------------------------------
     10.00000     10.00000      9.99768         0.000000      0.000000     -0.000202
     10.00000     10.00000     11.12865        -0.000000     -0.000000      0.000202
 -----------------------------------------------------------------------------------
    total drift:                                0.000000     -0.000000      0.000485


--------------------------------------------------------------------------------------------------------



  FREE ENERGIE OF THE ION-ELECTRON SYSTEM (eV)
  ---------------------------------------------------
  free  energy   TOTEN  =       -19.28971480 eV

  energy  without entropy=      -19.28971480  energy(sigma->0) =      -19.28971480



--------------------------------------------------------------------------------------------------------


    POTLOK:  cpu time      0.4161: real time      0.4161


--------------------------------------------------------------------------------------------------------


 Finite differences:
   Step               POTIM =    3.5000000000000003E-002
   Degrees of freedom DOF   =            6
    WAVPRE:  cpu time      0.0315: real time      0.0990
    FEWALD:  cpu time      0.0003: real time      0.0003
    ORTHCH:  cpu time      0.0146: real time      0.0146
    POTLOK:  cpu time      0.2076: real time      0.2076
    EDDIAG:  cpu time      2.4836: real time      2.4841
    CHARGE:  cpu time      0.0581: real time      0.0582
     LOOP+:  cpu time    137.1414: real time    137.4709


--------------------------------------- Iteration      2(   1)  ---------------------------------------


    POTLOK:  cpu time      0.1361: real time      0.1361
    SETDIJ:  cpu time      0.0760: real time      0.0761
    TRIAL :  cpu time      2.9861: real time      2.9866
    CORREC:  cpu time      2.7172: real time      2.7182
    CHARGE:  cpu time      0.0556: real time      0.0556
    --------------------------------------------
      LOOP:  cpu time      5.9717: real time      5.9733

 eigenvalue-minimisations  :     0
 total energy-change (2. order) : 0.2221265E+00  (-0.1727420E+00)
 number of electron       9.9999999 magnetization 
 augmentation part        0.6558702 magnetization 

 DIPCOR: dipole corrections for dipol
 direction  3 min pos     1,
 dipolmoment           0.000000      0.000000     -0.001996 electrons x Angstroem
 Tr[quadrupol]     -1996.120884

 energy correction for charged system         0.000000 eV
 dipol+quadrupol energy correction           -0.000000 eV
 added-field ion interaction          0.000052 eV  (added to PSCEN)


 Free energy of the ion-electron system (eV)
  ---------------------------------------------------
  alpha Z        PSCENC =         0.05166124
  Ewald energy   TEWEN  =       205.32768334
  -Hartree energ DENC   =      -686.69065625
  -exchange      EXHF   =        31.23683869
  -V(xc)+E(xc)   XCENC  =        31.11547887
  PAW double counting   =       976.61486421     -978.03014106
  entropy T*S    EENTRO =        -0.00000000
  eigenvalues    EBANDS =      -172.54513417
[...]
 Tr[quadrupol]     -1998.924151

 energy correction for charged system         0.000000 eV
 dipol+quadrupol energy correction           -0.000018 eV
 added-field ion interaction          0.000835 eV  (added to PSCEN)


 Free energy of the ion-electron system (eV)
  ---------------------------------------------------
  alpha Z        PSCENC =         0.05252410
  Ewald energy   TEWEN  =       215.22658963
  -Hartree energ DENC   =      -694.00847380
  -exchange      EXHF   =        31.47179381
  -V(xc)+E(xc)   XCENC  =        31.31620108
  PAW double counting   =       968.89165516     -970.34930764
  entropy T*S    EENTRO =        -0.00000000
  eigenvalues    EBANDS =      -175.65877178
  atomic energy  EATOM  =       573.86041687
  ---------------------------------------------------
  free energy    TOTEN  =       -19.19737256 eV

  energy without entropy =      -19.19737256  energy(sigma->0) =      -19.19737256
  exchange ACFDT corr.  =        -0.00000000  see jH, gK, PRB 81, 115126


--------------------------------------------------------------------------------------------------------




--------------------------------------- Iteration     13(  14)  ---------------------------------------


    POTLOK:  cpu time      0.1331: real time      0.1331
    SETDIJ:  cpu time      0.0759: real time      0.0759
    TRIAL :  cpu time      2.4011: real time      2.4015
    CORREC:  cpu time      2.6430: real time      2.6433
    CHARGE:  cpu time      0.0556: real time      0.0557
    --------------------------------------------
      LOOP:  cpu time      5.3240: real time      5.3252

 eigenvalue-minimisations  :     0
 total energy-change (2. order) :-0.1659989E-05  (-0.6437267E-06)
 number of electron      10.0000001 magnetization 
 augmentation part        0.6783096 magnetization 

 DIPCOR: dipole corrections for dipol
 direction  3 min pos     1,
 dipolmoment           0.000000      0.000000     -0.039365 electrons x Angstroem
 Tr[quadrupol]     -1998.924114

 energy correction for charged system         0.000000 eV
 dipol+quadrupol energy correction           -0.000018 eV
 added-field ion interaction          0.000835 eV  (added to PSCEN)


 Free energy of the ion-electron system (eV)
  ---------------------------------------------------
  alpha Z        PSCENC =         0.05252480
  Ewald energy   TEWEN  =       215.22658963
  -Hartree energ DENC   =      -694.00640498
  -exchange      EXHF   =        31.47172740
  -V(xc)+E(xc)   XCENC  =        31.31614862
  PAW double counting   =       968.83552947     -970.29329421
  entropy T*S    EENTRO =        -0.00000000
  eigenvalues    EBANDS =      -175.66061183
  atomic energy  EATOM  =       573.86041687
  ---------------------------------------------------
  free energy    TOTEN  =       -19.19737422 eV

  energy without entropy =      -19.19737422  energy(sigma->0) =      -19.19737422
  exchange ACFDT corr.  =        -0.00000000  see jH, gK, PRB 81, 115126


--------------------------------------------------------------------------------------------------------




--------------------------------------- Iteration     13(  15)  ---------------------------------------


    POTLOK:  cpu time      0.1348: real time      0.1348
    SETDIJ:  cpu time      0.0760: real time      0.0760
    TRIAL :  cpu time      2.4009: real time      2.4019
    CORREC:  cpu time      2.6083: real time      2.6090
    CHARGE:  cpu time      0.0563: real time      0.0563
    --------------------------------------------
      LOOP:  cpu time      5.2820: real time      5.2924

 eigenvalue-minimisations  :     0
 total energy-change (2. order) :-0.6443943E-06  (-0.2569442E-06)
 number of electron      10.0000001 magnetization 
 augmentation part        0.6783157 magnetization 

 DIPCOR: dipole corrections for dipol
 direction  3 min pos     1,
 dipolmoment           0.000000      0.000000     -0.039388 electrons x Angstroem
 Tr[quadrupol]     -1998.924105

 energy correction for charged system         0.000000 eV
 dipol+quadrupol energy correction           -0.000018 eV
 added-field ion interaction          0.000836 eV  (added to PSCEN)


 Free energy of the ion-electron system (eV)
  ---------------------------------------------------
  alpha Z        PSCENC =         0.05252533
  Ewald energy   TEWEN  =       215.22658963
  -Hartree energ DENC   =      -694.00430530
  -exchange      EXHF   =        31.47165179
  -V(xc)+E(xc)   XCENC  =        31.31608109
  PAW double counting   =       968.80348942     -970.26130770
  entropy T*S    EENTRO =        -0.00000000
  eigenvalues    EBANDS =      -175.66251600
  atomic energy  EATOM  =       573.86041687
  ---------------------------------------------------
  free energy    TOTEN  =       -19.19737487 eV

  energy without entropy =      -19.19737487  energy(sigma->0) =      -19.19737487
  exchange ACFDT corr.  =        -0.00000000  see jH, gK, PRB 81, 115126


--------------------------------------------------------------------------------------------------------




--------------------------------------- Iteration     13(  16)  ---------------------------------------


    POTLOK:  cpu time      0.1334: real time      0.1334
    SETDIJ:  cpu time      0.0760: real time      0.0760
    TRIAL :  cpu time      2.4436: real time      2.4441
    CORREC:  cpu time      2.6561: real time      2.6566
    CHARGE:  cpu time      0.0552: real time      0.0552
    --------------------------------------------
      LOOP:  cpu time      5.3791: real time      5.3803

 eigenvalue-minimisations  :     0
 total energy-change (2. order) :-0.2590697E-06  (-0.8986275E-07)
 number of electron      10.0000001 magnetization 
 augmentation part        0.6783180 magnetization 

 DIPCOR: dipole corrections for dipol
 direction  3 min pos     1,
 dipolmoment           0.000000      0.000000     -0.039403 electrons x Angstroem
 Tr[quadrupol]     -1998.924098

 energy correction for charged system         0.000000 eV
 dipol+quadrupol energy correction           -0.000018 eV
 added-field ion interaction          0.000836 eV  (added to PSCEN)


 Free energy of the ion-electron system (eV)
  ---------------------------------------------------
  alpha Z        PSCENC =         0.05252588
  Ewald energy   TEWEN  =       215.22658963
  -Hartree energ DENC   =      -694.00378517
  -exchange      EXHF   =        31.47163827
  -V(xc)+E(xc)   XCENC  =        31.31606986
  PAW double counting   =       968.79232401     -970.25016830
  entropy T*S    EENTRO =        -0.00000000
  eigenvalues    EBANDS =      -175.66298619
  atomic energy  EATOM  =       573.86041687
  ---------------------------------------------------
  free energy    TOTEN  =       -19.19737513 eV

  energy without entropy =      -19.19737513  energy(sigma->0) =      -19.19737513
  exchange ACFDT corr.  =        -0.00000000  see jH, gK, PRB 81, 115126


--------------------------------------------------------------------------------------------------------




--------------------------------------- Iteration     13(  17)  ---------------------------------------


    POTLOK:  cpu time      0.1326: real time      0.1326
    SETDIJ:  cpu time      0.0760: real time      0.0760
    TRIAL :  cpu time      2.4483: real time      2.4488
    CORREC:  cpu time      2.6251: real time      2.6256
    EDDIAG:  cpu time      2.3577: real time      2.3581
    CHARGE:  cpu time      0.0555: real time      0.0555
    --------------------------------------------
      LOOP:  cpu time      7.7013: real time      7.7119

 eigenvalue-minimisations  :     0
 total energy-change (2. order) :-0.9022420E-07  (-0.2669233E-07)
 number of electron      10.0000001 magnetization 
 augmentation part        0.6783191 magnetization 

 DIPCOR: dipole corrections for dipol
 direction  3 min pos     1,
 dipolmoment           0.000000      0.000000     -0.039404 electrons x Angstroem
 Tr[quadrupol]     -1998.924093

 energy correction for charged system         0.000000 eV
 dipol+quadrupol energy correction           -0.000018 eV
 added-field ion interaction          0.000836 eV  (added to PSCEN)


 Free energy of the ion-electron system (eV)
  ---------------------------------------------------
  alpha Z        PSCENC =         0.05252612
  Ewald energy   TEWEN  =       215.22658963
  -Hartree energ DENC   =      -694.00346951
  -exchange      EXHF   =        31.47162571
  -V(xc)+E(xc)   XCENC  =        31.31606083
  PAW double counting   =       968.79290320     -970.25075965
  entropy T*S    EENTRO =        -0.00000000
  eigenvalues    EBANDS =      -175.66327405
  atomic energy  EATOM  =       573.86041687
  ---------------------------------------------------
  free energy    TOTEN  =       -19.19737522 eV

  energy without entropy =      -19.19737522  energy(sigma->0) =      -19.19737522
  exchange ACFDT corr.  =        -0.00000000  see jH, gK, PRB 81, 115126


--------------------------------------------------------------------------------------------------------


  average scaling for gradient   2.0482


 average (electrostatic) potential at core
  the test charge radii are     0.6991  0.7215
  (the norm of the test charge is              1.0000)
       1 -57.4493       2 -77.0719



 E-fermi : -10.4001     XC(G=0):  -0.0632     alpha+bet : -0.0206

 Fermi energy:       -10.4001175381

 k-point     1 :       0.0000    0.0000    0.0000
  band No.  band energies     occupation 
      1     -33.2855      2.00000
      2     -16.2221      2.00000
      3     -13.8347      2.00000
      4     -13.8347      2.00000
      5     -10.6547      2.00000
      6      -0.4787      0.00000
      7      -0.4787      0.00000
      8      -0.0210      0.00000
      9       0.2757      0.00000
     10       0.3265      0.00000
     11       0.3646      0.00000
     12       0.3726      0.00000
     13       0.3726      0.00000
     14       0.3804      0.00000
     15       0.6452      0.00000
     16       0.6772      0.00000
     17       0.6913      0.00000
     18       0.6913      0.00000
     19       0.7146      0.00000
     20       0.7192      0.00000
     21       0.7192      0.00000
     22       0.7208      0.00000
     23       0.7492      0.00000
     24       0.7492      0.00000
     25       0.7495      0.00000
     26       0.7514      0.00000
     27       1.0503      0.00000
     28       1.0651      0.00000
     29       1.0651      0.00000
     30       1.0786      0.00000
     31       1.0801      0.00000
     32       1.0934      0.00000
     33       1.0934      0.00000
     34       1.0947      0.00000
     35       1.3150      0.00000
     36       1.3327      0.00000
     37       1.4783      0.00000
     38       1.4783      0.00000
     39       1.4815      0.00000
     40       1.5064      0.00000
     41       1.6191      0.00000
     42       1.6817      0.00000
     43       1.7012      0.00000
     44       1.7012      0.00000
     45       1.7249      0.00000
     46       1.7249      0.00000
     47       1.7255      0.00000
     48       1.7297      0.00000
     49       1.7860      0.00000
     50       1.7860      0.00000
     51       1.7966      0.00000
     52       1.8316      0.00000
     53       1.8371      0.00000
     54       1.8423      0.00000
     55       1.8423      0.00000
     56       1.8426      0.00000
     57       1.8517      0.00000
     58       1.8666      0.00000
     59       1.8666      0.00000
     60       1.8788      0.00000
     61       1.8833      0.00000
     62       1.8833      0.00000
     63       1.8855      0.00000
     64       1.8898      0.00000


--------------------------------------------------------------------------------------------------------


 soft charge-density along one line, spin component           1
         0         1         2         3         4         5         6         7         8         9
 total charge-density along one line

 pseudopotential strength for first ion, spin component:           1
 10.132  13.476  -0.000   0.037  -0.000   0.000  -0.117   0.000
 13.476  17.922  -0.000   0.049  -0.000   0.000  -0.156   0.000
 -0.000  -0.000  -4.327   0.000  -0.000   8.443   0.000   0.000
  0.037   0.049   0.000  -4.376  -0.000   0.000   8.528   0.000
 -0.000  -0.000  -0.000  -0.000  -4.327   0.000   0.000   8.443
  0.000   0.000   8.443   0.000   0.000 -18.595  -0.000  -0.000
 -0.117  -0.156   0.000   8.528   0.000  -0.000 -18.744  -0.000
  0.000   0.000   0.000   0.000   8.443  -0.000  -0.000 -18.595
 total augmentation occupancy for first ion, spin component:           1
  9.062  -4.290   0.000   2.414   0.000  -0.000   0.453   0.000
 -4.290   2.380   0.000  -1.784  -0.000   0.000  -0.275  -0.000
  0.000   0.000   0.879   0.000  -0.000   0.075  -0.000  -0.000
  2.414  -1.784   0.000   2.420  -0.000  -0.000   0.233   0.000
  0.000  -0.000  -0.000  -0.000   0.879  -0.000  -0.000   0.075
 -0.000   0.000   0.075  -0.000  -0.000   0.006  -0.000  -0.000
  0.453  -0.275  -0.000   0.233  -0.000  -0.000   0.033   0.000
  0.000  -0.000  -0.000   0.000   0.075  -0.000   0.000   0.006


------------------------ aborting loop because EDIFF is reached ----------------------------------------


    FORLOC:  cpu time      0.0027: real time      0.0027
    FORHF :  cpu time      0.1774: real time      0.1774
    FORNL :  cpu time      0.0050: real time      0.0050
    FORCOR:  cpu time      0.1756: real time      0.1756
    OFIELD:  cpu time      0.0002: real time      0.0002
    FORVDW:  cpu time      0.0007: real time      0.0007

 VOLUME and BASIS-vectors are now :
 -----------------------------------------------------------------------------
  energy-cutoff  :      600.00
  volume of cell :     8450.53
      direct lattice vectors                 reciprocal lattice vectors
    20.000000000  0.000000000  0.000000000     0.050000000  0.000000000  0.000000000
     0.000000000 20.000000000  0.000000000     0.000000000  0.050000000  0.000000000
     0.000000000  0.000000000 21.126328287     0.000000000  0.000000000  0.047334302

  length of vectors
    20.000000000 20.000000000 21.126328287     0.050000000  0.050000000  0.047334302


 FORCES acting on ions:
    Electron-Ion                     Ewald-Force                    Non-Local-Force
 -----------------------------------------------------------------------------------------------
   0.201E-08 0.216E-07 0.254E+03   0.661E-16 0.748E-16 -.288E+03   -.888E-09 -.349E-05 0.267E+02
   0.134E-09 0.190E-06 -.218E+03   -.817E-16 -.888E-16 0.288E+03   -.465E-09 0.122E-05 -.554E+02
 -----------------------------------------------------------------------------------------------
   0.215E-08 0.232E-06 0.360E+02   -.156E-16 -.140E-16 0.000E+00   -.135E-08 -.228E-05 -.288E+02


 POSITION                                       TOTAL-FORCE (eV/Angst)
 -----------------------------------------------------------------------------------
     10.00000     10.00000      9.99768         0.000000     -0.000003     -4.986923
     10.00000     10.00000     11.09365        -0.000000      0.000003      4.986923
 -----------------------------------------------------------------------------------
    total drift:                                0.000000     -0.000002     -0.002041


--------------------------------------------------------------------------------------------------------



  FREE ENERGIE OF THE ION-ELECTRON SYSTEM (eV)
  ---------------------------------------------------
  free  energy   TOTEN  =       -19.20597780 eV

  energy  without entropy=      -19.20597780  energy(sigma->0) =      -19.20597780

 d Force =-0.3809455E-01[-0.349E+00, 0.273E+00]  d Energy =-0.1266737E-01-0.254E-01
 d Force =-0.1895586E+02[-0.201E+02,-0.178E+02]  d Ewald  =-0.1891957E+02-0.363E-01


--------------------------------------------------------------------------------------------------------


    POTLOK:  cpu time      0.2112: real time      0.2113


--------------------------------------------------------------------------------------------------------


 Finite differences progress:
  Degree of freedom:   6/  6
  Displacement:        2/  2
  Total:              12/ 12

 SECOND DERIVATIVES (NOT SYMMETRIZED)
 ------------------------------------
               1X          1Y          1Z          2X          2Y          2Z 
  1X    -0.056506    0.000000   -0.000076    0.056506   -0.000000    0.000076
  1Y     0.001207   -0.054540    0.000749   -0.001207    0.054540   -0.000749
  1Z     0.000000    0.002148 -126.937916   -0.000000   -0.002148  126.937916
  2X     0.063457   -0.000000   -0.005280   -0.063457    0.000000    0.005280
  2Y     0.000145    0.062534   -0.000864   -0.000145   -0.062534    0.000864
  2Z    -0.000000   -0.001095  126.934725    0.000000    0.001095 -126.934725


 Eigenvectors and eigenvalues of the dynamical matrix
 ----------------------------------------------------


   1 f  =   67.244814 THz   422.511630 2PiTHz 2243.045566 cm-1   278.102081 meV
             X         Y         Z           dx          dy          dz
     10.000000 10.000000  9.997676     0.000000   -0.000007    0.755785  
     10.000000 10.000000 11.128652     0.000014    0.000007   -0.654820  

   2 f  =    1.457061 THz     9.154983 2PiTHz   48.602318 cm-1     6.025917 meV
             X         Y         Z           dx          dy          dz
     10.000000 10.000000  9.997676    -0.723152    0.143102   -0.000549  
     10.000000 10.000000 11.128652     0.664031   -0.125045   -0.000623  

   3 f  =    1.437131 THz     9.029763 2PiTHz   47.937544 cm-1     5.943495 meV
             X         Y         Z           dx          dy          dz
     10.000000 10.000000  9.997676    -0.139811   -0.718913    0.002879  
     10.000000 10.000000 11.128652     0.128588    0.668627    0.003340  

   4 f/i=    0.000430 THz     0.002704 2PiTHz    0.014356 cm-1     0.001780 meV
             X         Y         Z           dx          dy          dz
     10.000000 10.000000  9.997676    -0.016485    0.085473   -0.649008  
     10.000000 10.000000 11.128652    -0.019034    0.098651   -0.749077  

   5 f/i=    0.040389 THz     0.253774 2PiTHz    1.347243 cm-1     0.167037 meV
             X         Y         Z           dx          dy          dz
     10.000000 10.000000  9.997676     0.626427   -0.248072   -0.046862  
     10.000000 10.000000 11.128652     0.685280   -0.267061   -0.054073  

   6 f/i=    0.051519 THz     0.323702 2PiTHz    1.718483 cm-1     0.213065 meV
             X         Y         Z           dx          dy          dz
     10.000000 10.000000  9.997676     0.254603    0.627567    0.073301  
     10.000000 10.000000 11.128652     0.269365    0.675461    0.084608  

 Finite differences POTIM=   3.5000000000000003E-002
     LOOP+:  cpu time     93.4417: real time     93.5783
    4ORBIT:  cpu time      0.0000: real time      0.0000

 total amount of memory used by VASP MPI-rank0   594936. kBytes
=======================================================================

   base      :      30000. kBytes
   nonl-proj :       2826. kBytes
   fftplans  :      23575. kBytes
   grid      :      29568. kBytes
   one-center:          1. kBytes
   HF        :          4. kBytes
   nonlr-proj:         13. kBytes
   wavefun   :        849. kBytes
   fock_wrk  :     508100. kBytes

  
  
 General timing and accounting informations for this job:
 ========================================================
  
                  Total CPU time used (sec):     1295.776
                            User time (sec):     1256.199
                          System time (sec):       39.577
                         Elapsed time (sec):     1308.550
  
                   Maximum memory used (kb):      819972.
                   Average memory used (kb):          N/A
  
                          Minor page faults:      6705941
                          Major page faults:            0
                 Voluntary context switches:        32527
