 vasp.6.3.0 20Jan22 (build Apr  1 2022 16:44:48) complex                         
 executed on        HPECrayEX_GCC date 2023.04.25  22:26:13
 running  512 mpi-ranks, with    1 threads/rank
 distrk:  each k-point on  512 cores,    1 groups
 distr:  one band on NCORE=   8 cores,   64 groups


--------------------------------------------------------------------------------------------------------


 INCAR:
   SYSTEM = MgO-rocksalt
   ISMEAR = 0
   SIGMA = 0.05
   EDIFF = 1E-7
   POTIM = 0.5
   ALGO = ALL
   ISTART = 0
   IBRION = 2
   NSW = 1000
   ISYM = 2
   ISIF = 2
   EDIFFG = -0.01
   DIPOL = 0.5 0.5 0.5
   IDIPOL = 3
   LDIPOL = .TRUE.
   GGA = RE
   IVDW = 13
   VDW_S8 = 1.7468
   VDW_A1 = 0.5363
   VDW_A2 = 3.0726
   ENCUT = 600
   PREC = Normal
   LASPH = .TRUE.
   LREAL = .FALSE.
   ISPIN = 1
   NELM = 200
   NELMIN = 8
   NCORE = 8
   KPAR = 1
   LWAVE = .FALSE.
   LCHARG = .FALSE.

 POTCAR:    PAW_PBE Mg_pv 13Apr2007               
 POTCAR:    PAW_PBE O 08Apr2002                   
 POTCAR:    PAW_PBE Mg_pv 13Apr2007               
   SHA256 =  f474ac0dd33840b9ae76c01d57fea79fdf77cdfbb07d5ade72c65f83c709b62b Mg_pv/POTCAR          
   COPYR  = (c) Copyright 13Apr2007 Georg Kresse                                                    
   COPYR  = This file is part of the software VASP. Any use, copying, and all other rights are regul
   COPYR  = If you do not have a valid VASP license, you may not use, copy or distribute this file. 
   VRHFIN =Mg: p6s2                                                                                 
   LEXCH  = PE                                                                                      
   EATOM  =  1056.7344 eV,   77.6678 Ry                                                             
                                                                                                    
   TITEL  = PAW_PBE Mg_pv 13Apr2007                                                                 
   LULTRA =        F    use ultrasoft PP ?                                                          
   IUNSCR =        1    unscreen: 0-lin 1-nonlin 2-no                                               
   RPACOR =    1.500    partial core radius                                                         
   POMASS =   24.305; ZVAL   =    8.000    mass and valenz                                          
   RCORE  =    2.000    outmost cutoff radius                                                       
   RWIGS  =    2.000; RWIGS  =    1.058    wigner-seitz radius (au A)                               
   ENMAX  =  403.929; ENMIN  =  302.947 eV                                                          
   RCLOC  =    1.506    cutoff for local pot                                                        
   LCOR   =        T    correct aug charges                                                         
   LPAW   =        T    paw PP                                                                      
   EAUG   =  758.780                                                                                
   DEXC   =    0.000                                                                                
   RMAX   =    2.045    core radius for proj-oper                                                   
   RAUG   =    1.300    factor for augmentation sphere                                              
   RDEP   =    2.025    radius for radial grids                                                     
   RDEPT  =    1.557    core radius for aug-charge                                                  
                                                                                                    
   Atomic configuration                                                                             
    5 entries                                                                                       
     n  l   j            E        occ.                                                              
     1  0  0.50     -1259.6230   2.0000                                                             
     2  0  0.50       -79.8442   2.0000                                                             
     2  1  1.50       -46.6121   6.0000                                                             
     3  0  0.50        -4.7055   2.0000                                                             
     3  2  1.50        -1.3606   0.0000                                                             
   Description                                                                                      
     l       E           TYP  RCUT    TYP  RCUT                                                     
     1    -46.6121073     23  1.600                                                                 
     1      2.7211652     23  1.600                                                                 
     0     -4.7054661     23  2.000                                                                 
     0     61.2262170     23  2.000                                                                 
     2     -1.3605826     23  2.000                                                                 
  local pseudopotential read in
  partial core-charges read in
  partial kinetic energy density read in
  atomic valenz-charges read in
  non local Contribution for L=           1  read in
    real space projection operators read in
  non local Contribution for L=           1  read in
    real space projection operators read in
  non local Contribution for L=           0  read in
    real space projection operators read in
  non local Contribution for L=           0  read in
    real space projection operators read in
  non local Contribution for L=           2  read in
    real space projection operators read in
    PAW grid and wavefunctions read in

   number of l-projection  operators is LMAX  =           5
   number of lm-projection operators is LMMAX =          13

 POTCAR:    PAW_PBE O 08Apr2002                   
   SHA256 =  818f92134a0a090dccd8ba1447fa70422a3b330e708bb4f08108d8ae51209ddf O/POTCAR              
   COPYR  = (c) Copyright 08Apr2002 Georg Kresse                                                    
   COPYR  = This file is part of the software VASP. Any use, copying, and all other rights are regul
   COPYR  = If you do not have a valid VASP license, you may not use, copy or distribute this file. 
   VRHFIN =O: s2p4                                                                                  
   LEXCH  = PE                                                                                      
   EATOM  =   432.3788 eV,   31.7789 Ry                                                             
                                                                                                    
   TITEL  = PAW_PBE O 08Apr2002                                                                     
   LULTRA =        F    use ultrasoft PP ?                                                          
   IUNSCR =        1    unscreen: 0-lin 1-nonlin 2-no                                               
   RPACOR =    1.200    partial core radius                                                         
   POMASS =   16.000; ZVAL   =    6.000    mass and valenz                                          
   RCORE  =    1.520    outmost cutoff radius                                                       
   RWIGS  =    1.550; RWIGS  =    0.820    wigner-seitz radius (au A)                               
   ENMAX  =  400.000; ENMIN  =  300.000 eV                                                          
   ICORE  =        2    local potential                                                             
   LCOR   =        T    correct aug charges                                                         
   LPAW   =        T    paw PP                                                                      
   EAUG   =  605.392                                                                                
   DEXC   =    0.000                                                                                
   RMAX   =    1.553    core radius for proj-oper                                                   
   RAUG   =    1.300    factor for augmentation sphere                                              
   RDEP   =    1.550    radius for radial grids                                                     
   RDEPT  =    1.329    core radius for aug-charge                                                  
                                                                                                    
   Atomic configuration                                                                             
    4 entries                                                                                       
     n  l   j            E        occ.                                                              
     1  0  0.50      -514.6923   2.0000                                                             
     2  0  0.50       -23.9615   2.0000                                                             
     2  1  0.50        -9.0305   4.0000                                                             
     3  2  1.50        -9.5241   0.0000                                                             
   Description                                                                                      
     l       E           TYP  RCUT    TYP  RCUT                                                     
     0    -23.9615318     23  1.200                                                                 
     0     -9.5240782     23  1.200                                                                 
     1     -9.0304911     23  1.520                                                                 
     1      8.1634956     23  1.520                                                                 
     2     -9.5240782      7  1.500                                                                 
  local pseudopotential read in
  partial core-charges read in
  partial kinetic energy density read in
  kinetic energy density of atom read in
  atomic valenz-charges read in
  non local Contribution for L=           0  read in
    real space projection operators read in
  non local Contribution for L=           0  read in
    real space projection operators read in
  non local Contribution for L=           1  read in
    real space projection operators read in
  non local Contribution for L=           1  read in
    real space projection operators read in
    PAW grid and wavefunctions read in

   number of l-projection  operators is LMAX  =           4
   number of lm-projection operators is LMMAX =           8

 -----------------------------------------------------------------------------
|                                                                             |
|               ----> ADVICE to this user running VASP <----                  |
|                                                                             |
|     You have a (more or less) 'large supercell' and for larger cells it     |
|     might be more efficient to use real-space projection operators.         |
|     Therefore, try LREAL= Auto in the INCAR file.                           |
|     Mind: For very accurate calculation, you might also keep the            |
|     reciprocal projection scheme (i.e. LREAL=.FALSE.).                      |
|                                                                             |
 -----------------------------------------------------------------------------

 -----------------------------------------------------------------------------
|                                                                             |
|               ----> ADVICE to this user running VASP <----                  |
|                                                                             |
|     You enforced a specific xc type in the INCAR file but a different       |
|     type was found in the POTCAR file.                                      |
|     I HOPE YOU KNOW WHAT YOU ARE DOING!                                     |
|                                                                             |
 -----------------------------------------------------------------------------

  PAW_PBE Mg_pv 13Apr2007               :
 energy of atom  1       EATOM=-1056.7344
 kinetic energy error for atom=    0.0221 (will be added to EATOM!!)
  PAW_PBE O 08Apr2002                   :
 energy of atom  2       EATOM= -432.3788
 kinetic energy error for atom=    0.0168 (will be added to EATOM!!)


 POSCAR: Mg  O
  positions in direct lattice
  No initial velocities read in
 -----------------------------------------------------------------------------
|                                                                             |
|           W    W    AA    RRRRR   N    N  II  N    N   GGGG   !!!           |
|           W    W   A  A   R    R  NN   N  II  NN   N  G    G  !!!           |
|           W    W  A    A  R    R  N N  N  II  N N  N  G       !!!           |
|           W WW W  AAAAAA  RRRRR   N  N N  II  N  N N  G  GGG   !            |
|           WW  WW  A    A  R   R   N   NN  II  N   NN  G    G                |
|           W    W  A    A  R    R  N    N  II  N    N   GGGG   !!!           |
|                                                                             |
|     Specifying the vdW parameters                                           |
|     VDW_S8 = 1.747                                                          |
|     VDW_A1 = 0.536                                                          |
|     VDW_A2 = 3.073                                                          |
|     in the INCAR file will overwrite the defaults for revpbe. Please        |
|     make sure that is what you intended.                                    |
|                                                                             |
 -----------------------------------------------------------------------------

 exchange correlation table for  LEXCH =       40
   RHO(1)=    0.500       N(1)  =     2000
   RHO(2)=  100.500       N(2)  =     4000



--------------------------------------------------------------------------------------------------------


 ion  position               nearest neighbor table
   1  0.000  0.750  0.294-  51 2.11  52 2.11  63 2.11  76 2.11  49 2.11
   2  0.250  0.000  0.294-  51 2.11  52 2.11  64 2.11  75 2.11  50 2.11
   3  0.000  0.000  0.376-  55 2.11  50 2.11  49 2.11  61 2.11  74 2.11  51 2.11
   4  0.250  0.750  0.376-  56 2.11  50 2.11  49 2.11  62 2.11  73 2.11  52 2.11
   5  0.000  0.750  0.459-  49 2.11  55 2.11  56 2.11  67 2.11  80 2.11  53 2.11
   6  0.250  0.000  0.459-  50 2.11  55 2.11  56 2.11  68 2.11  79 2.11  54 2.11
   7  0.000  0.000  0.541-  59 2.11  54 2.11  53 2.11  65 2.11  78 2.11  55 2.11
   8  0.250  0.750  0.541-  60 2.11  54 2.11  53 2.11  66 2.11  77 2.11  56 2.11
   9  0.000  0.750  0.624-  53 2.11  59 2.11  60 2.11  71 2.11  84 2.11  57 2.11
  10  0.250  0.000  0.624-  54 2.11  59 2.11  60 2.11  72 2.11  83 2.11  58 2.11
  11  0.000  0.000  0.706-  57 2.11  58 2.11  69 2.11  82 2.11  59 2.11
  12  0.250  0.750  0.706-  57 2.11  58 2.11  70 2.11  81 2.11  60 2.11
  13  0.000  0.250  0.294-  51 2.11  63 2.11  64 2.11  88 2.11  61 2.11
  14  0.250  0.500  0.294-  52 2.11  63 2.11  64 2.11  87 2.11  62 2.11
  15  0.000  0.500  0.376-  67 2.11  61 2.11  62 2.11  49 2.11  86 2.11  63 2.11
  16  0.250  0.250  0.376-  68 2.11  61 2.11  62 2.11  50 2.11  85 2.11  64 2.11
  17  0.000  0.250  0.459-  61 2.11  55 2.11  67 2.11  68 2.11  92 2.11  65 2.11
  18  0.250  0.500  0.459-  62 2.11  56 2.11  67 2.11  68 2.11  91 2.11  66 2.11
  19  0.000  0.500  0.541-  71 2.11  65 2.11  66 2.11  53 2.11  90 2.11  67 2.11
  20  0.250  0.250  0.541-  72 2.11  65 2.11  66 2.11  54 2.11  89 2.11  68 2.11
  21  0.000  0.250  0.624-  65 2.11  59 2.11  71 2.11  72 2.11  96 2.11  69 2.11
  22  0.250  0.500  0.624-  66 2.11  60 2.11  71 2.11  72 2.11  95 2.11  70 2.11
  23  0.000  0.500  0.706-  57 2.11  69 2.11  70 2.11  94 2.11  71 2.11
  24  0.250  0.250  0.706-  58 2.11  69 2.11  70 2.11  93 2.11  72 2.11
  25  0.500  0.750  0.294-  52 2.11  75 2.11  76 2.11  87 2.11  73 2.11
  26  0.750  0.000  0.294-  51 2.11  75 2.11  76 2.11  88 2.11  74 2.11
  27  0.500  0.000  0.376-  79 2.11  73 2.11  74 2.11  50 2.11  85 2.11  75 2.11
  28  0.750  0.750  0.376-  80 2.11  73 2.11  74 2.11  49 2.11  86 2.11  76 2.11
  29  0.500  0.750  0.459-  73 2.11  56 2.11  79 2.11  80 2.11  91 2.11  77 2.11
  30  0.750  0.000  0.459-  74 2.11  55 2.11  79 2.11  80 2.11  92 2.11  78 2.11
  31  0.500  0.000  0.541-  83 2.11  77 2.11  78 2.11  54 2.11  89 2.11  79 2.11
  32  0.750  0.750  0.541-  84 2.11  77 2.11  78 2.11  53 2.11  90 2.11  80 2.11
  33  0.500  0.750  0.624-  77 2.11  60 2.11  83 2.11  84 2.11  95 2.11  81 2.11
  34  0.750  0.000  0.624-  78 2.11  59 2.11  83 2.11  84 2.11  96 2.11  82 2.11
  35  0.500  0.000  0.706-  58 2.11  81 2.11  82 2.11  93 2.11  83 2.11
  36  0.750  0.750  0.706-  57 2.11  81 2.11  82 2.11  94 2.11  84 2.11
  37  0.500  0.250  0.294-  64 2.11  75 2.11  87 2.11  88 2.11  85 2.11
  38  0.750  0.500  0.294-  63 2.11  76 2.11  87 2.11  88 2.11  86 2.11
  39  0.500  0.500  0.376-  91 2.11  73 2.11  85 2.11  86 2.11  62 2.11  87 2.11
  40  0.750  0.250  0.376-  92 2.11  74 2.11  85 2.11  86 2.11  61 2.11  88 2.11
  41  0.500  0.250  0.459-  85 2.11  79 2.11  68 2.11  91 2.11  92 2.11  89 2.11
  42  0.750  0.500  0.459-  86 2.11  80 2.11  67 2.11  91 2.11  92 2.11  90 2.11
  43  0.500  0.500  0.541-  95 2.11  77 2.11  89 2.11  90 2.11  66 2.11  91 2.11
  44  0.750  0.250  0.541-  96 2.11  78 2.11  89 2.11  90 2.11  65 2.11  92 2.11
  45  0.500  0.250  0.624-  89 2.11  83 2.11  72 2.11  95 2.11  96 2.11  93 2.11
  46  0.750  0.500  0.624-  90 2.11  84 2.11  71 2.11  95 2.11  96 2.11  94 2.11
  47  0.500  0.500  0.706-  70 2.11  81 2.11  93 2.11  94 2.11  95 2.11
  48  0.750  0.250  0.706-  69 2.11  82 2.11  93 2.11  94 2.11  96 2.11
  49  0.000  0.750  0.376-   5 2.11   4 2.11   3 2.11  15 2.11  28 2.11   1 2.11
  50  0.250  0.000  0.376-   6 2.11   4 2.11   3 2.11  16 2.11  27 2.11   2 2.11
  51  0.000  0.000  0.294-   1 2.11   2 2.11  13 2.11  26 2.11   3 2.11
  52  0.250  0.750  0.294-   1 2.11   2 2.11  14 2.11  25 2.11   4 2.11
  53  0.000  0.750  0.541-   9 2.11   8 2.11   7 2.11  19 2.11  32 2.11   5 2.11
  54  0.250  0.000  0.541-  10 2.11   8 2.11   7 2.11  20 2.11  31 2.11   6 2.11
  55  0.000  0.000  0.459-   3 2.11   5 2.11   6 2.11  17 2.11  30 2.11   7 2.11
  56  0.250  0.750  0.459-   4 2.11   5 2.11   6 2.11  18 2.11  29 2.11   8 2.11
  57  0.000  0.750  0.706-  11 2.11  12 2.11  23 2.11  36 2.11   9 2.11
  58  0.250  0.000  0.706-  11 2.11  12 2.11  24 2.11  35 2.11  10 2.11
  59  0.000  0.000  0.624-   7 2.11   9 2.11  10 2.11  21 2.11  34 2.11  11 2.11
  60  0.250  0.750  0.624-   8 2.11   9 2.11  10 2.11  22 2.11  33 2.11  12 2.11
  61  0.000  0.250  0.376-  17 2.11  15 2.11  16 2.11   3 2.11  40 2.11  13 2.11
  62  0.250  0.500  0.376-  18 2.11  15 2.11  16 2.11   4 2.11  39 2.11  14 2.11
  63  0.000  0.500  0.294-   1 2.11  13 2.11  14 2.11  38 2.11  15 2.11
  64  0.250  0.250  0.294-   2 2.11  13 2.11  14 2.11  37 2.11  16 2.11
  65  0.000  0.250  0.541-  21 2.11  19 2.11  20 2.11   7 2.11  44 2.11  17 2.11
  66  0.250  0.500  0.541-  22 2.11  19 2.11  20 2.11   8 2.11  43 2.11  18 2.11
  67  0.000  0.500  0.459-  15 2.11   5 2.11  17 2.11  18 2.11  42 2.11  19 2.11
  68  0.250  0.250  0.459-  16 2.11   6 2.11  17 2.11  18 2.11  41 2.11  20 2.11
  69  0.000  0.250  0.706-  11 2.11  23 2.11  24 2.11  48 2.11  21 2.11
  70  0.250  0.500  0.706-  12 2.11  23 2.11  24 2.11  47 2.11  22 2.11
  71  0.000  0.500  0.624-  19 2.11   9 2.11  21 2.11  22 2.11  46 2.11  23 2.11
  72  0.250  0.250  0.624-  20 2.11  10 2.11  21 2.11  22 2.11  45 2.11  24 2.11
  73  0.500  0.750  0.376-  29 2.11  27 2.11  28 2.11   4 2.11  39 2.11  25 2.11
  74  0.750  0.000  0.376-  30 2.11  27 2.11  28 2.11   3 2.11  40 2.11  26 2.11
  75  0.500  0.000  0.294-   2 2.11  25 2.11  26 2.11  37 2.11  27 2.11
  76  0.750  0.750  0.294-   1 2.11  25 2.11  26 2.11  38 2.11  28 2.11
  77  0.500  0.750  0.541-  33 2.11  31 2.11  32 2.11   8 2.11  43 2.11  29 2.11
  78  0.750  0.000  0.541-  34 2.11  31 2.11  32 2.11   7 2.11  44 2.11  30 2.11
  79  0.500  0.000  0.459-  27 2.11   6 2.11  29 2.11  30 2.11  41 2.11  31 2.11
  80  0.750  0.750  0.459-  28 2.11   5 2.11  29 2.11  30 2.11  42 2.11  32 2.11
  81  0.500  0.750  0.706-  12 2.11  35 2.11  36 2.11  47 2.11  33 2.11
  82  0.750  0.000  0.706-  11 2.11  35 2.11  36 2.11  48 2.11  34 2.11
  83  0.500  0.000  0.624-  31 2.11  10 2.11  33 2.11  34 2.11  45 2.11  35 2.11
  84  0.750  0.750  0.624-  32 2.11   9 2.11  33 2.11  34 2.11  46 2.11  36 2.11
  85  0.500  0.250  0.376-  41 2.11  27 2.11  39 2.11  40 2.11  16 2.11  37 2.11
  86  0.750  0.500  0.376-  42 2.11  28 2.11  39 2.11  40 2.11  15 2.11  38 2.11
  87  0.500  0.500  0.294-  14 2.11  25 2.11  37 2.11  38 2.11  39 2.11
  88  0.750  0.250  0.294-  13 2.11  26 2.11  37 2.11  38 2.11  40 2.11
  89  0.500  0.250  0.541-  45 2.11  31 2.11  43 2.11  44 2.11  20 2.11  41 2.11
  90  0.750  0.500  0.541-  46 2.11  32 2.11  43 2.11  44 2.11  19 2.11  42 2.11
  91  0.500  0.500  0.459-  39 2.11  29 2.11  18 2.11  41 2.11  42 2.11  43 2.11
  92  0.750  0.250  0.459-  40 2.11  30 2.11  17 2.11  41 2.11  42 2.11  44 2.11
  93  0.500  0.250  0.706-  24 2.11  35 2.11  47 2.11  48 2.11  45 2.11
  94  0.750  0.500  0.706-  23 2.11  36 2.11  47 2.11  48 2.11  46 2.11
  95  0.500  0.500  0.624-  43 2.11  33 2.11  22 2.11  45 2.11  46 2.11  47 2.11
  96  0.750  0.250  0.624-  44 2.11  34 2.11  21 2.11  45 2.11  46 2.11  48 2.11

  LATTYP: Found a simple tetragonal cell.
 ALAT       =     8.4409846542
 C/A-ratio  =     3.0270438657
  
  Lattice vectors:
  
 A1 = (   8.4409846542,   0.0000000000,   0.0000000000)
 A2 = (   0.0000000000,   8.4409846542,   0.0000000000)
 A3 = (   0.0000000000,   0.0000000000,  25.5512308177)


Analysis of symmetry for initial positions (statically):
=====================================================================
 Subroutine PRICEL returns following result:
 
  LATTYP: Found a simple tetragonal cell.
 ALAT       =     2.9843387444
 C/A-ratio  =     8.5617729775
  
  Lattice vectors:
  
 A1 = (   2.1102461635,  -2.1102461635,   0.0000000000)
 A2 = (   2.1102461635,   2.1102461635,   0.0000000000)
 A3 = (   0.0000000000,   0.0000000000,  25.5512308177)
 
   8 primitive cells build up your supercell.
 

 Routine SETGRP: Setting up the symmetry group for a 
 simple tetragonal supercell.


 Subroutine GETGRP returns: Found 16 space group operations
 (whereof  8 operations were pure point group operations)
 out of a pool of 16 trial point group operations.


The static configuration has the point symmetry C_4v.
 The point group associated with its full space group is D_4h.


Analysis of symmetry for dynamics (positions and initial velocities):
=====================================================================
 Subroutine PRICEL returns following result:
 
  LATTYP: Found a simple tetragonal cell.
 ALAT       =     2.9843387444
 C/A-ratio  =     8.5617729775
  
  Lattice vectors:
  
 A1 = (   2.1102461635,  -2.1102461635,   0.0000000000)
 A2 = (   2.1102461635,   2.1102461635,   0.0000000000)
 A3 = (   0.0000000000,   0.0000000000,  25.5512308177)
 
   8 primitive cells build up your supercell.
 

 Routine SETGRP: Setting up the symmetry group for a 
 simple tetragonal supercell.


 Subroutine GETGRP returns: Found 16 space group operations
 (whereof  8 operations were pure point group operations)
 out of a pool of 16 trial point group operations.


The dynamic configuration has the point symmetry C_4v.
 The point group associated with its full space group is D_4h.


Analysis of constrained symmetry for selective dynamics:
=====================================================================
 Subroutine PRICEL returns following result:
 
  LATTYP: Found a simple tetragonal cell.
 ALAT       =     2.9843387444
 C/A-ratio  =     8.5617729775
  
  Lattice vectors:
  
 A1 = (   2.1102461635,  -2.1102461635,   0.0000000000)
 A2 = (   2.1102461635,   2.1102461635,   0.0000000000)
 A3 = (   0.0000000000,   0.0000000000,  25.5512308177)
 
   8 primitive cells build up your supercell.
 

 Routine SETGRP: Setting up the symmetry group for a 
 simple tetragonal supercell.


 Subroutine GETGRP returns: Found  8 space group operations
 (whereof  8 operations were pure point group operations)
 out of a pool of 16 trial point group operations.


The constrained configuration has the point symmetry C_4v.


 Subroutine INISYM returns: Found  8 space group operations
 (whereof  8 operations are pure point group operations),
 and found     8 'primitive' translations


----------------------------------------------------------------------------------------

                                     Primitive cell                                     

  volume of cell :     227.5664

  direct lattice vectors                    reciprocal lattice vectors
     2.110246164 -2.110246164  0.000000000     0.236939182 -0.236939182  0.000000000
     2.110246164  2.110246164  0.000000000     0.236939182  0.236939182 -0.000000000
     0.000000000  0.000000000 25.551230818    -0.000000000  0.000000000  0.039137058

  length of vectors
     2.984338744  2.984338744 25.551230818     0.335082605  0.335082605  0.039137058

  position of ions in fractional coordinates (direct lattice)
     0.500000000  0.500000000  0.293527934
     0.000000000  0.000000000  0.376116761
     0.500000000  0.500000000  0.458705587
     0.000000000  0.000000000  0.541294413
     0.500000000  0.500000000  0.623883239
     0.000000000  0.000000000  0.706472066
     0.500000000  0.500000000  0.376116761
     0.000000000  0.000000000  0.293527934
     0.500000000  0.500000000  0.541294413
     0.000000000  0.000000000  0.458705587
     0.500000000  0.500000000  0.706472066
     0.000000000  0.000000000  0.623883239

  ion indices of the primitive-cell ions
   primitive index   ion index
                 1           1
                 2           3
                 3           5
                 4           7
                 5           9
                 6          11
                 7          49
                 8          51
                 9          53
                10          55
                11          57
                12          59

----------------------------------------------------------------------------------------



 KPOINTS: pymatgen v2020.8.13 with grid density = 

Automatic generation of k-mesh.
 Grid dimensions read from file:
 generate k-points for:    2    2    1

 Generating k-lattice:

  Cartesian coordinates                     Fractional coordinates (reciprocal lattice)
     0.059234796  0.000000000  0.000000000     0.500000000  0.000000000  0.000000000
     0.000000000  0.059234796  0.000000000     0.000000000  0.500000000  0.000000000
     0.000000000  0.000000000  0.039137058     0.000000000  0.000000000  1.000000000

  Length of vectors
     0.059234796  0.059234796  0.039137058

  Shift w.r.t. Gamma in fractional coordinates (k-lattice)
     0.000000000  0.000000000  0.000000000

 
 Subroutine IBZKPT returns following result:
 ===========================================
 
 Found      3 irreducible k-points:
 
 Following reciprocal coordinates:
            Coordinates               Weight
  0.000000  0.000000  0.000000      1.000000
  0.500000  0.000000  0.000000      2.000000
  0.500000  0.500000  0.000000      1.000000
 
 Following cartesian coordinates:
            Coordinates               Weight
  0.000000  0.000000  0.000000      1.000000
  0.059235  0.000000  0.000000      2.000000
  0.059235  0.059235  0.000000      1.000000
 


--------------------------------------------------------------------------------------------------------




 Dimension of arrays:
   k-points           NKPTS =      3   k-points in BZ     NKDIM =      3   number of bands    NBANDS=    448
   number of dos      NEDOS =    301   number of ions     NIONS =     96
   non local maximal  LDIM  =      5   non local SUM 2l+1 LMDIM =     13
   total plane-waves  NPLWV = 466560
   max r-space proj   IRMAX =      1   max aug-charges    IRDMAX=   5250
   dimension x,y,z NGX =    54 NGY =   54 NGZ =  160
   dimension x,y,z NGXF=   108 NGYF=  108 NGZF=  320
   support grid    NGXF=   108 NGYF=  108 NGZF=  320
   ions per type =              48  48
   NGX,Y,Z   is equivalent  to a cutoff of  10.64, 10.64, 10.41 a.u.
   NGXF,Y,Z  is equivalent  to a cutoff of  21.27, 21.27, 20.82 a.u.

 SYSTEM =  MgO-rocksalt                            
 POSCAR =  Mg  O                                   

 Startparameter for this run:
   NWRITE =      2    write-flag & timer
   PREC   = normal    normal or accurate (medium, high low for compatibility)
   ISTART =      0    job   : 0-new  1-cont  2-samecut
   ICHARG =      2    charge: 1-file 2-atom 10-const
   ISPIN  =      1    spin polarized calculation?
   LNONCOLLINEAR =      F non collinear calculations
   LSORBIT =      F    spin-orbit coupling
   INIWAV =      1    electr: 0-lowe 1-rand  2-diag
   LASPH  =      T    aspherical Exc in radial PAW
 Electronic Relaxation 1
   ENCUT  =  600.0 eV  44.10 Ry    6.64 a.u.  16.86 16.86 51.03*2*pi/ulx,y,z
   ENINI  =  600.0     initial cutoff
   ENAUG  =  758.8 eV  augmentation charge cutoff
   NELM   =    200;   NELMIN=  8; NELMDL= -5     # of ELM steps 
   EDIFF  = 0.1E-06   stopping-criterion for ELM
   LREAL  =      F    real-space projection
   NLSPLINE    = F    spline interpolate recip. space projectors
   LCOMPAT=      F    compatible to vasp.4.4
   GGA_COMPAT  = T    GGA compatible to vasp.4.4-vasp.4.6
   LMAXPAW     = -100 max onsite density
   LMAXMIX     =    2 max onsite mixed and CHGCAR
   VOSKOWN=      0    Vosko Wilk Nusair interpolation
   ROPT   =    0.00000   0.00000
 Ionic relaxation
   EDIFFG = -.1E-01   stopping-criterion for IOM
   NSW    =   1000    number of steps for IOM
   NBLOCK =      1;   KBLOCK =   1000    inner block; outer block 
   IBRION =      2    ionic relax: 0-MD 1-quasi-New 2-CG
   NFREE  =      1    steps in history (QN), initial steepest desc. (CG)
   ISIF   =      2    stress and relaxation
   IWAVPR =     11    prediction:  0-non 1-charg 2-wave 3-comb
   ISYM   =      2    0-nonsym 1-usesym 2-fastsym
   LCORR  =      T    Harris-Foulkes like correction to forces

   POTIM  = 0.5000    time-step for ionic-motion
   TEIN   =    0.0    initial temperature
   TEBEG  =    0.0;   TEEND  =   0.0 temperature during run
   SMASS  =  -3.00    Nose mass-parameter (am)
   estimated Nose-frequenzy (Omega)   =  0.10E-29 period in steps = 0.13E+47 mass=  -0.163E-26a.u.
   SCALEE = 1.0000    scale energy and forces
   NPACO  =    256;   APACO  = 10.0  distance and # of slots for P.C.
   PSTRESS=    0.0 pullay stress

  Mass of Ions in am
   POMASS =  24.30 16.00
  Ionic Valenz
   ZVAL   =   8.00  6.00
  Atomic Wigner-Seitz radii
   RWIGS  =  -1.00 -1.00
  virtual crystal weights 
   VCA    =   1.00  1.00
   NELECT =     672.0000    total number of electrons
   NUPDOWN=      -1.0000    fix difference up-down

 DOS related values:
   EMIN   =  10.00;   EMAX   =-10.00  energy-range for DOS
   EFERMI =   0.00
   ISMEAR =     0;   SIGMA  =   0.05  broadening in eV -4-tet -1-fermi 0-gaus

 Electronic relaxation 2 (details)
   IALGO  =     58    algorithm
   LDIAG  =      T    sub-space diagonalisation (order eigenvalues)
   LSUBROT=      F    optimize rotation matrix (better conditioning)
   TURBO    =      0    0=normal 1=particle mesh
   IRESTART =      0    0=no restart 2=restart with 2 vectors
   NREBOOT  =      0    no. of reboots
   NMIN     =      0    reboot dimension
   EREF     =   0.00    reference energy to select bands
   IMIX   =      4    mixing-type and parameters
     AMIX     =   0.40;   BMIX     =  1.00
     AMIX_MAG =   1.60;   BMIX_MAG =  1.00
     AMIN     =   0.10
     WC   =   100.;   INIMIX=   1;  MIXPRE=   1;  MAXMIX= -45

 Intra band minimization:
   WEIMIN = 0.0010     energy-eigenvalue tresh-hold
   EBREAK =  0.56E-10  absolut break condition
   DEPER  =   0.30     relativ break condition  

   TIME   =   0.40     timestep for ELM

  volume/ion in A,a.u.               =      18.96       127.97
  Fermi-wavevector in a.u.,A,eV,Ry     =   1.174353  2.219205 18.763855  1.379104
  Thomas-Fermi vector in A             =   2.310751

 Write flags
   LWAVE        =      F    write WAVECAR
   LDOWNSAMPLE  =      F    k-point downsampling of WAVECAR
   LCHARG       =      F    write CHGCAR
   LVTOT        =      F    write LOCPOT, total local potential
   LVHAR        =      F    write LOCPOT, Hartree potential only
   LELF         =      F    write electronic localiz. function (ELF)
   LORBIT       =      0    0 simple, 1 ext, 2 COOP (PROOUT), +10 PAW based schemes


 Dipole corrections
   LMONO  =      F    monopole corrections only (constant potential shift)
   LDIPOL =      T    correct potential (dipole corrections)
   IDIPOL =      3    1-x, 2-y, 3-z, 4-all directions 
   EPSILON=  1.0000000 bulk dielectric constant

 Exchange correlation treatment:
   GGA     =    RE    GGA type
   LEXCH   =    40    internal setting for exchange type
   LIBXC   =     F    Libxc                    
   VOSKOWN =     0    Vosko Wilk Nusair interpolation
   LHFCALC =     F    Hartree Fock is set to
   LHFONE  =     F    Hartree Fock one center treatment
   AEXX    =    0.0000 exact exchange contribution

 Linear response parameters
   LEPSILON=     F    determine dielectric tensor
   LRPA    =     F    only Hartree local field effects (RPA)
   LNABLA  =     F    use nabla operator in PAW spheres
   LVEL    =     F    velocity operator in full k-point grid
   CSHIFT  =0.1000    complex shift for real part using Kramers Kronig
   OMEGAMAX=  -1.0    maximum frequency
   DEG_THRESHOLD= 0.2000000E-02 threshold for treating states as degnerate
   RTIME   =   -0.100 relaxation time in fs
  (WPLASMAI=    0.000 imaginary part of plasma frequency in eV, 0.658/RTIME)
   DFIELD  = 0.0000000 0.0000000 0.0000000 field for delta impulse in time

  Optional k-point grid parameters
   LKPOINTS_OPT  =     F    use optional k-point grid
   KPOINTS_OPT_MODE=     1    mode for optional k-point grid

 Orbital magnetization related:
   ORBITALMAG=     F  switch on orbital magnetization
   LCHIMAG   =     F  perturbation theory with respect to B field
   DQ        =  0.001000  dq finite difference perturbation B field
   LLRAUG    =     F  two centre corrections for induced B field



--------------------------------------------------------------------------------------------------------


 conjugate gradient relaxation of ions
   using selective dynamics as specified on POSCAR
 charge density and potential will be updated during run
 non-spin polarized calculation
 Conjugate gradient for all bands (Freysoldt, et al. PRB 79, 241103 (2009))
 preconditioned conjugated gradient                                        
 perform sub-space diagonalisation
    before iterative eigenvector-optimisation
 modified Broyden-mixing scheme, WC =      100.0
 initial mixing is a Kerker type mixing with AMIX =  0.4000 and BMIX =      1.0000
 Hartree-type preconditioning will be used
 using additional bands          112
 reciprocal scheme for non local part
 use partial core corrections
 no Harris-corrections to forces 
 use gradient corrections 
 use of overlap-Matrix (Vanderbilt PP)
 Gauss-broadening in eV      SIGMA  =   0.05


--------------------------------------------------------------------------------------------------------


  energy-cutoff  :      600.00
  volume of cell :     1820.53
      direct lattice vectors                 reciprocal lattice vectors
     8.440984654  0.000000000  0.000000000     0.118469591  0.000000000  0.000000000
     0.000000000  8.440984654  0.000000000     0.000000000  0.118469591  0.000000000
     0.000000000  0.000000000 25.551230818     0.000000000  0.000000000  0.039137058

  length of vectors
     8.440984654  8.440984654 25.551230818     0.118469591  0.118469591  0.039137058



 k-points in units of 2pi/SCALE and weight: pymatgen v2020.8.13 with grid density = 
   0.00000000  0.00000000  0.00000000       0.250
   0.05923480  0.00000000  0.00000000       0.500
   0.05923480  0.05923480  0.00000000       0.250

 k-points in reciprocal lattice and weights: pymatgen v2020.8.13 with grid density = 
   0.00000000  0.00000000  0.00000000       0.250
   0.50000000  0.00000000  0.00000000       0.500
   0.50000000  0.50000000  0.00000000       0.250

 position of ions in fractional coordinates (direct lattice) 
   0.00000000  0.75000000  0.29352793
   0.25000000  0.00000000  0.29352793
   0.00000000  0.00000000  0.37611676
   0.25000000  0.75000000  0.37611676
   0.00000000  0.75000000  0.45870559
   0.25000000  0.00000000  0.45870559
   0.00000000  0.00000000  0.54129441
   0.25000000  0.75000000  0.54129441
   0.00000000  0.75000000  0.62388324
   0.25000000  0.00000000  0.62388324
   0.00000000  0.00000000  0.70647207
   0.25000000  0.75000000  0.70647207
   0.00000000  0.25000000  0.29352793
   0.25000000  0.50000000  0.29352793
   0.00000000  0.50000000  0.37611676
   0.25000000  0.25000000  0.37611676
   0.00000000  0.25000000  0.45870559
   0.25000000  0.50000000  0.45870559
   0.00000000  0.50000000  0.54129441
   0.25000000  0.25000000  0.54129441
   0.00000000  0.25000000  0.62388324
   0.25000000  0.50000000  0.62388324
   0.00000000  0.50000000  0.70647207
   0.25000000  0.25000000  0.70647207
   0.50000000  0.75000000  0.29352793
   0.75000000  0.00000000  0.29352793
   0.50000000  0.00000000  0.37611676
   0.75000000  0.75000000  0.37611676
   0.50000000  0.75000000  0.45870559
   0.75000000  0.00000000  0.45870559
   0.50000000  0.00000000  0.54129441
   0.75000000  0.75000000  0.54129441
   0.50000000  0.75000000  0.62388324
   0.75000000  0.00000000  0.62388324
   0.50000000  0.00000000  0.70647207
   0.75000000  0.75000000  0.70647207
   0.50000000  0.25000000  0.29352793
   0.75000000  0.50000000  0.29352793
   0.50000000  0.50000000  0.37611676
   0.75000000  0.25000000  0.37611676
   0.50000000  0.25000000  0.45870559
   0.75000000  0.50000000  0.45870559
   0.50000000  0.50000000  0.54129441
   0.75000000  0.25000000  0.54129441
   0.50000000  0.25000000  0.62388324
   0.75000000  0.50000000  0.62388324
   0.50000000  0.50000000  0.70647207
   0.75000000  0.25000000  0.70647207
   0.00000000  0.75000000  0.37611676
   0.25000000  0.00000000  0.37611676
   0.00000000  0.00000000  0.29352793
   0.25000000  0.75000000  0.29352793
   0.00000000  0.75000000  0.54129441
   0.25000000  0.00000000  0.54129441
   0.00000000  0.00000000  0.45870559
   0.25000000  0.75000000  0.45870559
   0.00000000  0.75000000  0.70647207
   0.25000000  0.00000000  0.70647207
   0.00000000  0.00000000  0.62388324
   0.25000000  0.75000000  0.62388324
   0.00000000  0.25000000  0.37611676
   0.25000000  0.50000000  0.37611676
   0.00000000  0.50000000  0.29352793
   0.25000000  0.25000000  0.29352793
   0.00000000  0.25000000  0.54129441
   0.25000000  0.50000000  0.54129441
   0.00000000  0.50000000  0.45870559
   0.25000000  0.25000000  0.45870559
   0.00000000  0.25000000  0.70647207
   0.25000000  0.50000000  0.70647207
   0.00000000  0.50000000  0.62388324
   0.25000000  0.25000000  0.62388324
   0.50000000  0.75000000  0.37611676
   0.75000000  0.00000000  0.37611676
   0.50000000  0.00000000  0.29352793
   0.75000000  0.75000000  0.29352793
   0.50000000  0.75000000  0.54129441
   0.75000000  0.00000000  0.54129441
   0.50000000  0.00000000  0.45870559
   0.75000000  0.75000000  0.45870559
   0.50000000  0.75000000  0.70647207
   0.75000000  0.00000000  0.70647207
   0.50000000  0.00000000  0.62388324
   0.75000000  0.75000000  0.62388324
   0.50000000  0.25000000  0.37611676
   0.75000000  0.50000000  0.37611676
   0.50000000  0.50000000  0.29352793
   0.75000000  0.25000000  0.29352793
   0.50000000  0.25000000  0.54129441
   0.75000000  0.50000000  0.54129441
   0.50000000  0.50000000  0.45870559
   0.75000000  0.25000000  0.45870559
   0.50000000  0.25000000  0.70647207
   0.75000000  0.50000000  0.70647207
   0.50000000  0.50000000  0.62388324
   0.75000000  0.25000000  0.62388324

 position of ions in cartesian coordinates  (Angst):
   0.00000000  6.33073849  7.50000000
   2.11024616  0.00000000  7.50000000
   0.00000000  0.00000000  9.61024616
   2.11024616  6.33073849  9.61024616
   0.00000000  6.33073849 11.72049233
   2.11024616  0.00000000 11.72049233
   0.00000000  0.00000000 13.83073849
   2.11024616  6.33073849 13.83073849
   0.00000000  6.33073849 15.94098465
   2.11024616  0.00000000 15.94098465
   0.00000000  0.00000000 18.05123082
   2.11024616  6.33073849 18.05123082
   0.00000000  2.11024616  7.50000000
   2.11024616  4.22049233  7.50000000
   0.00000000  4.22049233  9.61024616
   2.11024616  2.11024616  9.61024616
   0.00000000  2.11024616 11.72049233
   2.11024616  4.22049233 11.72049233
   0.00000000  4.22049233 13.83073849
   2.11024616  2.11024616 13.83073849
   0.00000000  2.11024616 15.94098465
   2.11024616  4.22049233 15.94098465
   0.00000000  4.22049233 18.05123082
   2.11024616  2.11024616 18.05123082
   4.22049233  6.33073849  7.50000000
   6.33073849  0.00000000  7.50000000
   4.22049233  0.00000000  9.61024616
   6.33073849  6.33073849  9.61024616
   4.22049233  6.33073849 11.72049233
   6.33073849  0.00000000 11.72049233
   4.22049233  0.00000000 13.83073849
   6.33073849  6.33073849 13.83073849
   4.22049233  6.33073849 15.94098465
   6.33073849  0.00000000 15.94098465
   4.22049233  0.00000000 18.05123082
   6.33073849  6.33073849 18.05123082
   4.22049233  2.11024616  7.50000000
   6.33073849  4.22049233  7.50000000
   4.22049233  4.22049233  9.61024616
   6.33073849  2.11024616  9.61024616
   4.22049233  2.11024616 11.72049233
   6.33073849  4.22049233 11.72049233
   4.22049233  4.22049233 13.83073849
   6.33073849  2.11024616 13.83073849
   4.22049233  2.11024616 15.94098465
   6.33073849  4.22049233 15.94098465
   4.22049233  4.22049233 18.05123082
   6.33073849  2.11024616 18.05123082
   0.00000000  6.33073849  9.61024616
   2.11024616  0.00000000  9.61024616
   0.00000000  0.00000000  7.50000000
   2.11024616  6.33073849  7.50000000
   0.00000000  6.33073849 13.83073849
   2.11024616  0.00000000 13.83073849
   0.00000000  0.00000000 11.72049233
   2.11024616  6.33073849 11.72049233
   0.00000000  6.33073849 18.05123082
   2.11024616  0.00000000 18.05123082
   0.00000000  0.00000000 15.94098465
   2.11024616  6.33073849 15.94098465
   0.00000000  2.11024616  9.61024616
   2.11024616  4.22049233  9.61024616
   0.00000000  4.22049233  7.50000000
   2.11024616  2.11024616  7.50000000
   0.00000000  2.11024616 13.83073849
   2.11024616  4.22049233 13.83073849
   0.00000000  4.22049233 11.72049233
   2.11024616  2.11024616 11.72049233
   0.00000000  2.11024616 18.05123082
   2.11024616  4.22049233 18.05123082
   0.00000000  4.22049233 15.94098465
   2.11024616  2.11024616 15.94098465
   4.22049233  6.33073849  9.61024616
   6.33073849  0.00000000  9.61024616
   4.22049233  0.00000000  7.50000000
   6.33073849  6.33073849  7.50000000
   4.22049233  6.33073849 13.83073849
   6.33073849  0.00000000 13.83073849
   4.22049233  0.00000000 11.72049233
   6.33073849  6.33073849 11.72049233
   4.22049233  6.33073849 18.05123082
   6.33073849  0.00000000 18.05123082
   4.22049233  0.00000000 15.94098465
   6.33073849  6.33073849 15.94098465
   4.22049233  2.11024616  9.61024616
   6.33073849  4.22049233  9.61024616
   4.22049233  4.22049233  7.50000000
   6.33073849  2.11024616  7.50000000
   4.22049233  2.11024616 13.83073849
   6.33073849  4.22049233 13.83073849
   4.22049233  4.22049233 11.72049233
   6.33073849  2.11024616 11.72049233
   4.22049233  2.11024616 18.05123082
   6.33073849  4.22049233 18.05123082
   4.22049233  4.22049233 15.94098465
   6.33073849  2.11024616 15.94098465



--------------------------------------------------------------------------------------------------------


 k-point   1 :   0.0000 0.0000 0.0000  plane waves:   60715
 k-point   2 :   0.5000 0.0000 0.0000  plane waves:   60834
 k-point   3 :   0.5000 0.5000 0.0000  plane waves:   60752

 maximum and minimum number of plane-waves per node :      7628     7566

 maximum number of plane-waves:     60834
 maximum index in each direction: 
   IXMAX=   16   IYMAX=   16   IZMAX=   51
   IXMIN=  -17   IYMIN=  -17   IZMIN=  -51


 parallel 3D FFT for wavefunctions:
    minimum data exchange during FFTs selected (reduces bandwidth)
 parallel 3D FFT for charge:
    minimum data exchange during FFTs selected (reduces bandwidth)


 total amount of memory used by VASP MPI-rank0    61675. kBytes
=======================================================================

   base      :      30000. kBytes
   nonl-proj :      16450. kBytes
   fftplans  :       2956. kBytes
   grid      :       4369. kBytes
   one-center:         97. kBytes
   wavefun   :       7803. kBytes

     INWAV:  cpu time      0.0001: real time      0.0001
 Broyden mixing: mesh for mixing (old mesh)
   NGX = 33   NGY = 33   NGZ =103
  (NGX  =108   NGY  =108   NGZ  =320)
  gives a total of 112167 points

 initial charge density was supplied:
 charge density of overlapping atoms calculated
 number of electron     672.0000000 magnetization 
 keeping initial charge density in first step


--------------------------------------------------------------------------------------------------------


 Maximum index for augmentation-charges          347 (set IRDMAX)


--------------------------------------------------------------------------------------------------------


 First call to EWALD:  gamma=   0.145
 Maximum number of real-space cells 4x 4x 2
 Maximum number of reciprocal cells 2x 2x 5

    FEWALD:  cpu time      0.0045: real time      0.0045


--------------------------------------- Iteration      1(   1)  ---------------------------------------


    POTLOK:  cpu time      0.0722: real time      0.0732
    SETDIJ:  cpu time      0.1892: real time      0.1893
    TRIAL :  cpu time     20.4775: real time     20.5726
    CORREC:  cpu time      0.0014: real time      0.0014
    --------------------------------------------
      LOOP:  cpu time     20.7461: real time     20.8424

 eigenvalue-minimisations  :  3328
 total energy-change (2. order) : 0.6653711E+04  (-0.4652088E+05)
 number of electron     672.0000000 magnetization 
 augmentation part      672.0000000 magnetization 

 DIPCOR: dipole corrections for dipol
 direction  3 min pos     1,
 dipolmoment           0.000000      0.000000      0.000000 electrons x Angstroem
 Tr[quadrupol]     -8946.828138

 energy correction for charged system         0.000000 eV
 dipol+quadrupol energy correction           -0.000000 eV
 added-field ion interaction         -0.000000 eV  (added to PSCEN)


 Free energy of the ion-electron system (eV)
  ---------------------------------------------------
  alpha Z        PSCENC =      1644.04352452
  Ewald energy   TEWEN  =    273064.83378103
  -Hartree energ DENC   =   -327436.16395927
  -exchange      EXHF   =         0.00000000
  -V(xc)+E(xc)   XCENC  =      2598.29786025
  PAW double counting   =     47827.99247072   -53505.79592915
  entropy T*S    EENTRO =        -0.01719083
  eigenvalues    EBANDS =     -8965.64134788
  atomic energy  EATOM  =     71426.16160064
  ---------------------------------------------------
  free energy    TOTEN  =      6653.71081003 eV

  energy without entropy =     6653.72800086  energy(sigma->0) =     6653.71940544


--------------------------------------------------------------------------------------------------------




--------------------------------------- Iteration      1(   2)  ---------------------------------------


    TRIAL :  cpu time      4.3828: real time      4.3831
    CORREC:  cpu time      0.0003: real time      0.0003
    --------------------------------------------
      LOOP:  cpu time      4.3885: real time      4.3984

 eigenvalue-minimisations  :  3264
 total energy-change (2. order) :-0.6836543E+04  (-0.6733684E+04)
 number of electron     672.0000000 magnetization 
 augmentation part      672.0000000 magnetization 

 DIPCOR: dipole corrections for dipol
 direction  3 min pos     1,
 dipolmoment           0.000000      0.000000      0.000000 electrons x Angstroem
 Tr[quadrupol]     -8946.828138

 energy correction for charged system         0.000000 eV
 dipol+quadrupol energy correction           -0.000000 eV
 added-field ion interaction         -0.000000 eV  (added to PSCEN)


 Free energy of the ion-electron system (eV)
  ---------------------------------------------------
  alpha Z        PSCENC =      1644.04352452
  Ewald energy   TEWEN  =    273064.83378103
  -Hartree energ DENC   =   -327436.16395927
  -exchange      EXHF   =         0.00000000
  -V(xc)+E(xc)   XCENC  =      2598.29786025
  PAW double counting   =     47827.99247072   -53505.79592915
  entropy T*S    EENTRO =        -0.00000000
  eigenvalues    EBANDS =    -15802.20153149
  atomic energy  EATOM  =     71426.16160064
  ---------------------------------------------------
  free energy    TOTEN  =      -182.83218275 eV

  energy without entropy =     -182.83218275  energy(sigma->0) =     -182.83218275


--------------------------------------------------------------------------------------------------------




--------------------------------------- Iteration      1(   3)  ---------------------------------------


    TRIAL :  cpu time      4.2253: real time      4.2255
    CORREC:  cpu time      0.0003: real time      0.0003
    --------------------------------------------
      LOOP:  cpu time      4.2313: real time      4.2401

 eigenvalue-minimisations  :  3136
 total energy-change (2. order) :-0.4310583E+03  (-0.4285513E+03)
 number of electron     672.0000000 magnetization 
 augmentation part      672.0000000 magnetization 

 DIPCOR: dipole corrections for dipol
 direction  3 min pos     1,
 dipolmoment           0.000000      0.000000      0.000000 electrons x Angstroem
 Tr[quadrupol]     -8946.828138

 energy correction for charged system         0.000000 eV
 dipol+quadrupol energy correction           -0.000000 eV
 added-field ion interaction         -0.000000 eV  (added to PSCEN)


 Free energy of the ion-electron system (eV)
  ---------------------------------------------------
  alpha Z        PSCENC =      1644.04352452
  Ewald energy   TEWEN  =    273064.83378103
  -Hartree energ DENC   =   -327436.16395927
  -exchange      EXHF   =         0.00000000
  -V(xc)+E(xc)   XCENC  =      2598.29786025
  PAW double counting   =     47827.99247072   -53505.79592915
  entropy T*S    EENTRO =        -0.00000000
  eigenvalues    EBANDS =    -16233.25980172
  atomic energy  EATOM  =     71426.16160064
  ---------------------------------------------------
  free energy    TOTEN  =      -613.89045297 eV

  energy without entropy =     -613.89045297  energy(sigma->0) =     -613.89045297


--------------------------------------------------------------------------------------------------------




--------------------------------------- Iteration      1(   4)  ---------------------------------------


    TRIAL :  cpu time      4.4611: real time      4.4613
    CORREC:  cpu time      0.0003: real time      0.0003
    --------------------------------------------
      LOOP:  cpu time      4.4754: real time      4.4757

 eigenvalue-minimisations  :  3264
 total energy-change (2. order) :-0.8526809E+01  (-0.8506007E+01)
 number of electron     672.0000000 magnetization 
 augmentation part      672.0000000 magnetization 

 DIPCOR: dipole corrections for dipol
 direction  3 min pos     1,
 dipolmoment           0.000000      0.000000      0.000000 electrons x Angstroem
 Tr[quadrupol]     -8946.828138

 energy correction for charged system         0.000000 eV
 dipol+quadrupol energy correction           -0.000000 eV
 added-field ion interaction         -0.000000 eV  (added to PSCEN)


 Free energy of the ion-electron system (eV)
  ---------------------------------------------------
  alpha Z        PSCENC =      1644.04352452
  Ewald energy   TEWEN  =    273064.83378103
  -Hartree energ DENC   =   -327436.16395927
  -exchange      EXHF   =         0.00000000
  -V(xc)+E(xc)   XCENC  =      2598.29786025
  PAW double counting   =     47827.99247072   -53505.79592915
  entropy T*S    EENTRO =        -0.00000000
  eigenvalues    EBANDS =    -16241.78661025
  atomic energy  EATOM  =     71426.16160064
  ---------------------------------------------------
  free energy    TOTEN  =      -622.41726151 eV

  energy without entropy =     -622.41726151  energy(sigma->0) =     -622.41726151


--------------------------------------------------------------------------------------------------------




--------------------------------------- Iteration      1(   5)  ---------------------------------------


    TRIAL :  cpu time      3.9938: real time      3.9944
    CORREC:  cpu time      0.0003: real time      0.0003
    CHARGE:  cpu time      0.1978: real time      0.1983
    --------------------------------------------
      LOOP:  cpu time      4.1968: real time      4.2070

 eigenvalue-minimisations  :  3136
 total energy-change (2. order) :-0.1325671E+00  (-0.1325407E+00)
 number of electron     671.9999450 magnetization 
 augmentation part      238.3949899 magnetization 

 DIPCOR: dipole corrections for dipol
 direction  3 min pos     1,
 dipolmoment           0.000000      0.000000      0.000000 electrons x Angstroem
 Tr[quadrupol]     -8946.828138

 energy correction for charged system         0.000000 eV
 dipol+quadrupol energy correction           -0.000000 eV
 added-field ion interaction         -0.000000 eV  (added to PSCEN)


 Free energy of the ion-electron system (eV)
  ---------------------------------------------------
  alpha Z        PSCENC =      1644.04352452
  Ewald energy   TEWEN  =    273064.83378103
  -Hartree energ DENC   =   -327436.16395927
  -exchange      EXHF   =         0.00000000
  -V(xc)+E(xc)   XCENC  =      2598.29786025
  PAW double counting   =     47827.99247072   -53505.79592915
  entropy T*S    EENTRO =        -0.00000000
  eigenvalues    EBANDS =    -16241.91917735
  atomic energy  EATOM  =     71426.16160064
  ---------------------------------------------------
  free energy    TOTEN  =      -622.54982861 eV

  energy without entropy =     -622.54982861  energy(sigma->0) =     -622.54982861


--------------------------------------------------------------------------------------------------------




--------------------------------------- Iteration      1(   6)  ---------------------------------------


    POTLOK:  cpu time      0.0442: real time      0.0442
    SETDIJ:  cpu time      0.1889: real time      0.1889
    TRIAL :  cpu time      1.3560: real time      1.3567
    CORREC:  cpu time      1.0027: real time      1.0027
    CHARGE:  cpu time      0.1830: real time      0.1830
    --------------------------------------------
      LOOP:  cpu time      2.7886: real time      2.7895

 eigenvalue-minimisations  :     0
 total energy-change (2. order) : 0.2414278E+03  (-0.1348415E+03)
 number of electron     671.9999299 magnetization 
 augmentation part      234.2485494 magnetization 

 DIPCOR: dipole corrections for dipol
 direction  3 min pos     1,
 dipolmoment           0.000000      0.000000     -0.006497 electrons x Angstroem
 Tr[quadrupol]     -9001.784756

 energy correction for charged system         0.000000 eV
 dipol+quadrupol energy correction           -0.000002 eV
 added-field ion interaction         -0.000000 eV  (added to PSCEN)


 Free energy of the ion-electron system (eV)
  ---------------------------------------------------
  alpha Z        PSCENC =      1644.04352452
  Ewald energy   TEWEN  =    273064.83378103
  -Hartree energ DENC   =   -332901.48682534
  -exchange      EXHF   =         0.00000000
  -V(xc)+E(xc)   XCENC  =      2773.31112509
  PAW double counting   =     54473.02495826   -60090.56403468
  entropy T*S    EENTRO =        -0.00000000
  eigenvalues    EBANDS =    -10770.44610843
  atomic energy  EATOM  =     71426.16160064
  ---------------------------------------------------
  free energy    TOTEN  =      -381.12197891 eV

  energy without entropy =     -381.12197891  energy(sigma->0) =     -381.12197891


--------------------------------------------------------------------------------------------------------




--------------------------------------- Iteration      1(   7)  ---------------------------------------


    POTLOK:  cpu time      0.0430: real time      0.0430
    SETDIJ:  cpu time      0.1880: real time      0.1880
    TRIAL :  cpu time      1.1779: real time      1.1779
    CORREC:  cpu time      0.9956: real time      0.9956
    CHARGE:  cpu time      0.1833: real time      0.1833
    --------------------------------------------
      LOOP:  cpu time      2.6018: real time      2.6021

 eigenvalue-minimisations  :     0
 total energy-change (2. order) :-0.1353554E+03  (-0.9011792E+01)
 number of electron     671.9999284 magnetization 
 augmentation part      231.6038919 magnetization 

 DIPCOR: dipole corrections for dipol
 direction  3 min pos     1,
 dipolmoment           0.000000      0.000000     -0.002338 electrons x Angstroem
 Tr[quadrupol]     -9011.269619

 energy correction for charged system         0.000000 eV
 dipol+quadrupol energy correction           -0.000000 eV
 added-field ion interaction          0.000000 eV  (added to PSCEN)


 Free energy of the ion-electron system (eV)
  ---------------------------------------------------
  alpha Z        PSCENC =      1644.04352319
  Ewald energy   TEWEN  =    273064.83378103
  -Hartree energ DENC   =   -330186.13344239
  -exchange      EXHF   =         0.00000000
  -V(xc)+E(xc)   XCENC  =      2679.09106013
  PAW double counting   =     52928.33742711   -58655.07614065
  entropy T*S    EENTRO =        -0.00000000
  eigenvalues    EBANDS =    -13417.73521568
  atomic energy  EATOM  =     71426.16160064
  ---------------------------------------------------
  free energy    TOTEN  =      -516.47740662 eV

  energy without entropy =     -516.47740662  energy(sigma->0) =     -516.47740662


--------------------------------------------------------------------------------------------------------




--------------------------------------- Iteration      1(   8)  ---------------------------------------


    POTLOK:  cpu time      0.0427: real time      0.0427
    SETDIJ:  cpu time      0.1878: real time      0.1878
    TRIAL :  cpu time      1.1752: real time      1.1752
    CORREC:  cpu time      0.9937: real time      0.9938
    CHARGE:  cpu time      0.1827: real time      0.1830
    --------------------------------------------
      LOOP:  cpu time      2.5961: real time      2.5966

 eigenvalue-minimisations  :     0
 total energy-change (2. order) :-0.9034792E+01  (-0.5167835E+01)
 number of electron     671.9999264 magnetization 
 augmentation part      231.8207106 magnetization 

 DIPCOR: dipole corrections for dipol
 direction  3 min pos     1,
 dipolmoment           0.000000      0.000000      0.000579 electrons x Angstroem
 Tr[quadrupol]     -9009.468900

 energy correction for charged system         0.000000 eV
 dipol+quadrupol energy correction           -0.000000 eV
 added-field ion interaction          0.000000 eV  (added to PSCEN)


 Free energy of the ion-electron system (eV)
  ---------------------------------------------------
  alpha Z        PSCENC =      1644.04352441
  Ewald energy   TEWEN  =    273064.83378103
  -Hartree energ DENC   =   -330066.02368795
  -exchange      EXHF   =         0.00000000
  -V(xc)+E(xc)   XCENC  =      2664.93128168
  PAW double counting   =     52785.60092535   -58408.78775294
  entropy T*S    EENTRO =        -0.00000000
  eigenvalues    EBANDS =    -13636.27187118
  atomic energy  EATOM  =     71426.16160064
  ---------------------------------------------------
  free energy    TOTEN  =      -525.51219896 eV

  energy without entropy =     -525.51219896  energy(sigma->0) =     -525.51219896


--------------------------------------------------------------------------------------------------------




--------------------------------------- Iteration      1(   9)  ---------------------------------------


    POTLOK:  cpu time      0.0437: real time      0.0437
    SETDIJ:  cpu time      0.1881: real time      0.1881
    TRIAL :  cpu time      1.1763: real time      1.1764
    CORREC:  cpu time      0.9921: real time      0.9921
    CHARGE:  cpu time      0.1836: real time      0.1836
    --------------------------------------------
      LOOP:  cpu time      2.5891: real time      2.5991

 eigenvalue-minimisations  :     0
 total energy-change (2. order) :-0.5133854E+01  (-0.2357711E+01)
 number of electron     671.9999260 magnetization 
 augmentation part      231.8643414 magnetization 

 DIPCOR: dipole corrections for dipol
 direction  3 min pos     1,
 dipolmoment           0.000000      0.000000      0.001855 electrons x Angstroem
 Tr[quadrupol]     -9002.496347

 energy correction for charged system         0.000000 eV
 dipol+quadrupol energy correction           -0.000000 eV
 added-field ion interaction         -0.000000 eV  (added to PSCEN)


 Free energy of the ion-electron system (eV)
  ---------------------------------------------------
  alpha Z        PSCENC =      1644.04352444
  Ewald energy   TEWEN  =    273064.83378103
  -Hartree energ DENC   =   -329948.65569847
  -exchange      EXHF   =         0.00000000
  -V(xc)+E(xc)   XCENC  =      2665.44659313
  PAW double counting   =     52697.61734607   -58369.73380980
  entropy T*S    EENTRO =        -0.00000000
  eigenvalues    EBANDS =    -13710.35939049
  atomic energy  EATOM  =     71426.16160064
  ---------------------------------------------------
  free energy    TOTEN  =      -530.64605345 eV

  energy without entropy =     -530.64605345  energy(sigma->0) =     -530.64605345


--------------------------------------------------------------------------------------------------------




--------------------------------------- Iteration      1(  10)  ---------------------------------------


    POTLOK:  cpu time      0.0440: real time      0.0440
    SETDIJ:  cpu time      0.1886: real time      0.1886
    TRIAL :  cpu time      1.1736: real time      1.1737
    CORREC:  cpu time      0.9949: real time      0.9950
    CHARGE:  cpu time      0.1834: real time      0.1834
    --------------------------------------------
      LOOP:  cpu time      2.5907: real time      2.5987

 eigenvalue-minimisations  :     0
 total energy-change (2. order) :-0.2357663E+01  (-0.8964480E+00)
 number of electron     671.9999266 magnetization 
 augmentation part      231.7399918 magnetization 

 DIPCOR: dipole corrections for dipol
 direction  3 min pos     1,
 dipolmoment           0.000000      0.000000      0.000194 electrons x Angstroem
 Tr[quadrupol]     -8999.798722

 energy correction for charged system         0.000000 eV
 dipol+quadrupol energy correction           -0.000000 eV
 added-field ion interaction         -0.000000 eV  (added to PSCEN)


 Free energy of the ion-electron system (eV)
  ---------------------------------------------------
  alpha Z        PSCENC =      1644.04352435
  Ewald energy   TEWEN  =    273064.83378103
  -Hartree energ DENC   =   -329771.20999384
  -exchange      EXHF   =         0.00000000
  -V(xc)+E(xc)   XCENC  =      2663.83598998
  PAW double counting   =     52531.71892170   -58216.94921166
  entropy T*S    EENTRO =        -0.00000000
  eigenvalues    EBANDS =    -13875.43832827
  atomic energy  EATOM  =     71426.16160064
  ---------------------------------------------------
  free energy    TOTEN  =      -533.00371607 eV

  energy without entropy =     -533.00371607  energy(sigma->0) =     -533.00371607


--------------------------------------------------------------------------------------------------------




--------------------------------------- Iteration      1(  11)  ---------------------------------------


    POTLOK:  cpu time      0.0427: real time      0.0427
    SETDIJ:  cpu time      0.1885: real time      0.1885
    TRIAL :  cpu time      1.1747: real time      1.1748
    CORREC:  cpu time      0.9908: real time      0.9908
    CHARGE:  cpu time      0.1835: real time      0.1835
    --------------------------------------------
      LOOP:  cpu time      2.5849: real time      2.5943

 eigenvalue-minimisations  :     0
 total energy-change (2. order) :-0.8972889E+00  (-0.2871279E+00)
 number of electron     671.9999271 magnetization 
 augmentation part      231.8224868 magnetization 

 DIPCOR: dipole corrections for dipol
 direction  3 min pos     1,
 dipolmoment           0.000000      0.000000      0.000032 electrons x Angstroem
 Tr[quadrupol]     -8999.911916

 energy correction for charged system         0.000000 eV
 dipol+quadrupol energy correction           -0.000000 eV
 added-field ion interaction          0.000000 eV  (added to PSCEN)


 Free energy of the ion-electron system (eV)
  ---------------------------------------------------
  alpha Z        PSCENC =      1644.04352452
  Ewald energy   TEWEN  =    273064.83378103
  -Hartree energ DENC   =   -329669.99816601
  -exchange      EXHF   =         0.00000000
  -V(xc)+E(xc)   XCENC  =      2661.89850583
  PAW double counting   =     52417.84520208   -58090.70269053
  entropy T*S    EENTRO =        -0.00000000
  eigenvalues    EBANDS =    -13987.98276249
  atomic energy  EATOM  =     71426.16160064
  ---------------------------------------------------
  free energy    TOTEN  =      -533.90100494 eV

  energy without entropy =     -533.90100494  energy(sigma->0) =     -533.90100494


--------------------------------------------------------------------------------------------------------




--------------------------------------- Iteration      1(  12)  ---------------------------------------


    POTLOK:  cpu time      0.0427: real time      0.0427
    SETDIJ:  cpu time      0.1879: real time      0.1879
    TRIAL :  cpu time      1.1709: real time      1.1709
    CORREC:  cpu time      0.9898: real time      0.9901
    CHARGE:  cpu time      0.1830: real time      0.1830
    --------------------------------------------
      LOOP:  cpu time      2.5797: real time      2.5892

 eigenvalue-minimisations  :     0
 total energy-change (2. order) :-0.2871212E+00  (-0.8134991E-01)
 number of electron     671.9999273 magnetization 
 augmentation part      231.9546367 magnetization 

 DIPCOR: dipole corrections for dipol
 direction  3 min pos     1,
 dipolmoment           0.000000      0.000000      0.000352 electrons x Angstroem
 Tr[quadrupol]     -9000.148041

 energy correction for charged system         0.000000 eV
 dipol+quadrupol energy correction           -0.000000 eV
 added-field ion interaction          0.000000 eV  (added to PSCEN)


 Free energy of the ion-electron system (eV)
  ---------------------------------------------------
  alpha Z        PSCENC =      1644.04352452
  Ewald energy   TEWEN  =    273064.83378103
  -Hartree energ DENC   =   -329662.91879050
  -exchange      EXHF   =         0.00000000
  -V(xc)+E(xc)   XCENC  =      2661.66284462
  PAW double counting   =     52385.87188902   -58055.81535985
  entropy T*S    EENTRO =        -0.00000000
  eigenvalues    EBANDS =    -13998.02761567
  atomic energy  EATOM  =     71426.16160064
  ---------------------------------------------------
  free energy    TOTEN  =      -534.18812619 eV

  energy without entropy =     -534.18812619  energy(sigma->0) =     -534.18812619


--------------------------------------------------------------------------------------------------------




--------------------------------------- Iteration      1(  13)  ---------------------------------------


    POTLOK:  cpu time      0.0432: real time      0.0432
    SETDIJ:  cpu time      0.1885: real time      0.1885
    TRIAL :  cpu time      1.1703: real time      1.1703
    CORREC:  cpu time      0.9891: real time      0.9891
    CHARGE:  cpu time      0.1833: real time      0.1833
    --------------------------------------------
      LOOP:  cpu time      2.5797: real time      2.5889

 eigenvalue-minimisations  :     0
 total energy-change (2. order) :-0.8135026E-01  (-0.2882710E-01)
 number of electron     671.9999273 magnetization 
 augmentation part      231.9996176 magnetization 

 DIPCOR: dipole corrections for dipol
 direction  3 min pos     1,
 dipolmoment           0.000000      0.000000      0.000341 electrons x Angstroem
 Tr[quadrupol]     -9000.214216

 energy correction for charged system         0.000000 eV
 dipol+quadrupol energy correction           -0.000000 eV
 added-field ion interaction          0.000000 eV  (added to PSCEN)


 Free energy of the ion-electron system (eV)
  ---------------------------------------------------
  alpha Z        PSCENC =      1644.04352452
  Ewald energy   TEWEN  =    273064.83378103
  -Hartree energ DENC   =   -329674.75398208
  -exchange      EXHF   =         0.00000000
  -V(xc)+E(xc)   XCENC  =      2661.91035512
  PAW double counting   =     52385.25264439   -58059.42076148
  entropy T*S    EENTRO =        -0.00000000
  eigenvalues    EBANDS =    -13982.29663859
  atomic energy  EATOM  =     71426.16160064
  ---------------------------------------------------
  free energy    TOTEN  =      -534.26947645 eV

  energy without entropy =     -534.26947645  energy(sigma->0) =     -534.26947645


--------------------------------------------------------------------------------------------------------




--------------------------------------- Iteration      1(  14)  ---------------------------------------


    POTLOK:  cpu time      0.0429: real time      0.0429
    SETDIJ:  cpu time      0.1884: real time      0.1884
    TRIAL :  cpu time      1.1654: real time      1.1655
    CORREC:  cpu time      0.9878: real time      0.9879
    CHARGE:  cpu time      0.1832: real time      0.1832
    --------------------------------------------
      LOOP:  cpu time      2.5729: real time      2.5822

 eigenvalue-minimisations  :     0
 total energy-change (2. order) :-0.2883397E-01  (-0.1050710E-01)
 number of electron     671.9999273 magnetization 
 augmentation part      231.9850611 magnetization 

 DIPCOR: dipole corrections for dipol
 direction  3 min pos     1,
 dipolmoment           0.000000      0.000000      0.000181 electrons x Angstroem
 Tr[quadrupol]     -9000.322686

 energy correction for charged system         0.000000 eV
 dipol+quadrupol energy correction           -0.000000 eV
 added-field ion interaction          0.000000 eV  (added to PSCEN)


 Free energy of the ion-electron system (eV)
  ---------------------------------------------------
  alpha Z        PSCENC =      1644.04352452
  Ewald energy   TEWEN  =    273064.83378103
  -Hartree energ DENC   =   -329676.63652325
  -exchange      EXHF   =         0.00000000
  -V(xc)+E(xc)   XCENC  =      2661.92002053
  PAW double counting   =     52387.93840094   -58063.77366224
  entropy T*S    EENTRO =        -0.00000000
  eigenvalues    EBANDS =    -13978.78545258
  atomic energy  EATOM  =     71426.16160064
  ---------------------------------------------------
  free energy    TOTEN  =      -534.29831041 eV

  energy without entropy =     -534.29831041  energy(sigma->0) =     -534.29831041


--------------------------------------------------------------------------------------------------------




--------------------------------------- Iteration      1(  15)  ---------------------------------------


    POTLOK:  cpu time      0.0430: real time      0.0430
    SETDIJ:  cpu time      0.1884: real time      0.1884
    TRIAL :  cpu time      1.1673: real time      1.1673
    CORREC:  cpu time      0.9898: real time      0.9898
    CHARGE:  cpu time      0.1829: real time      0.1829
    --------------------------------------------
      LOOP:  cpu time      2.5854: real time      2.5856

 eigenvalue-minimisations  :     0
 total energy-change (2. order) :-0.1051174E-01  (-0.4550510E-02)
 number of electron     671.9999273 magnetization 
 augmentation part      231.9741868 magnetization 

 DIPCOR: dipole corrections for dipol
 direction  3 min pos     1,
 dipolmoment           0.000000      0.000000      0.000037 electrons x Angstroem
 Tr[quadrupol]     -9000.490607

 energy correction for charged system         0.000000 eV
 dipol+quadrupol energy correction           -0.000000 eV
 added-field ion interaction          0.000000 eV  (added to PSCEN)


 Free energy of the ion-electron system (eV)
  ---------------------------------------------------
  alpha Z        PSCENC =      1644.04352452
  Ewald energy   TEWEN  =    273064.83378103
  -Hartree energ DENC   =   -329680.11786743
  -exchange      EXHF   =         0.00000000
  -V(xc)+E(xc)   XCENC  =      2661.93123448
  PAW double counting   =     52393.02983483   -58067.83807524
  entropy T*S    EENTRO =        -0.00000000
  eigenvalues    EBANDS =    -13976.35285498
  atomic energy  EATOM  =     71426.16160064
  ---------------------------------------------------
  free energy    TOTEN  =      -534.30882215 eV

  energy without entropy =     -534.30882215  energy(sigma->0) =     -534.30882215


--------------------------------------------------------------------------------------------------------




--------------------------------------- Iteration      1(  16)  ---------------------------------------


    POTLOK:  cpu time      0.0417: real time      0.0417
    SETDIJ:  cpu time      0.1889: real time      0.1889
    TRIAL :  cpu time      1.1673: real time      1.1673
    CORREC:  cpu time      0.9888: real time      0.9891
    CHARGE:  cpu time      0.1835: real time      0.1836
    --------------------------------------------
      LOOP:  cpu time      2.5744: real time      2.5848

 eigenvalue-minimisations  :     0
 total energy-change (2. order) :-0.4547309E-02  (-0.1650118E-02)
 number of electron     671.9999273 magnetization 
 augmentation part      231.9737036 magnetization 

 DIPCOR: dipole corrections for dipol
 direction  3 min pos     1,
 dipolmoment           0.000000      0.000000     -0.000030 electrons x Angstroem
 Tr[quadrupol]     -9000.606512

 energy correction for charged system         0.000000 eV
 dipol+quadrupol energy correction           -0.000000 eV
 added-field ion interaction          0.000000 eV  (added to PSCEN)


 Free energy of the ion-electron system (eV)
  ---------------------------------------------------
  alpha Z        PSCENC =      1644.04352452
  Ewald energy   TEWEN  =    273064.83378103
  -Hartree energ DENC   =   -329686.93997906
  -exchange      EXHF   =         0.00000000
  -V(xc)+E(xc)   XCENC  =      2662.02541957
  PAW double counting   =     52399.43258113   -58073.73657142
  entropy T*S    EENTRO =        -0.00000000
  eigenvalues    EBANDS =    -13970.13372588
  atomic energy  EATOM  =     71426.16160064
  ---------------------------------------------------
  free energy    TOTEN  =      -534.31336946 eV

  energy without entropy =     -534.31336946  energy(sigma->0) =     -534.31336946


--------------------------------------------------------------------------------------------------------




--------------------------------------- Iteration      1(  17)  ---------------------------------------


    POTLOK:  cpu time      0.0416: real time      0.0416
    SETDIJ:  cpu time      0.1888: real time      0.1888
    TRIAL :  cpu time      1.1693: real time      1.1694
    CORREC:  cpu time      0.9884: real time      0.9884
    CHARGE:  cpu time      0.1836: real time      0.1836
    --------------------------------------------
      LOOP:  cpu time      2.5859: real time      2.5862

 eigenvalue-minimisations  :     0
 total energy-change (2. order) :-0.1646533E-02  (-0.5506699E-03)
 number of electron     671.9999273 magnetization 
 augmentation part      231.9738453 magnetization 

 DIPCOR: dipole corrections for dipol
 direction  3 min pos     1,
 dipolmoment           0.000000      0.000000     -0.000029 electrons x Angstroem
 Tr[quadrupol]     -9000.637268

 energy correction for charged system         0.000000 eV
 dipol+quadrupol energy correction           -0.000000 eV
 added-field ion interaction         -0.000000 eV  (added to PSCEN)


 Free energy of the ion-electron system (eV)
  ---------------------------------------------------
  alpha Z        PSCENC =      1644.04352452
  Ewald energy   TEWEN  =    273064.83378103
  -Hartree energ DENC   =   -329690.18579025
  -exchange      EXHF   =         0.00000000
  -V(xc)+E(xc)   XCENC  =      2662.07028823
  PAW double counting   =     52403.54545009   -58078.13216448
  entropy T*S    EENTRO =        -0.00000000
  eigenvalues    EBANDS =    -13966.65170578
  atomic energy  EATOM  =     71426.16160064
  ---------------------------------------------------
  free energy    TOTEN  =      -534.31501599 eV

  energy without entropy =     -534.31501599  energy(sigma->0) =     -534.31501599


--------------------------------------------------------------------------------------------------------




--------------------------------------- Iteration      1(  18)  ---------------------------------------


    POTLOK:  cpu time      0.0430: real time      0.0430
    SETDIJ:  cpu time      0.1884: real time      0.1884
    TRIAL :  cpu time      1.1685: real time      1.1685
    CORREC:  cpu time      0.9883: real time      0.9884
    CHARGE:  cpu time      0.1831: real time      0.1832
    --------------------------------------------
      LOOP:  cpu time      2.5763: real time      2.5856

 eigenvalue-minimisations  :     0
 total energy-change (2. order) :-0.5497303E-03  (-0.1705909E-03)
 number of electron     671.9999273 magnetization 
 augmentation part      231.9735252 magnetization 

 DIPCOR: dipole corrections for dipol
 direction  3 min pos     1,
 dipolmoment           0.000000      0.000000     -0.000012 electrons x Angstroem
 Tr[quadrupol]     -9000.635566

 energy correction for charged system         0.000000 eV
 dipol+quadrupol energy correction           -0.000000 eV
 added-field ion interaction         -0.000000 eV  (added to PSCEN)


 Free energy of the ion-electron system (eV)
  ---------------------------------------------------
  alpha Z        PSCENC =      1644.04352452
  Ewald energy   TEWEN  =    273064.83378103
  -Hartree energ DENC   =   -329690.72989195
  -exchange      EXHF   =         0.00000000
  -V(xc)+E(xc)   XCENC  =      2662.08539895
  PAW double counting   =     52406.23473261   -58080.88661866
  entropy T*S    EENTRO =        -0.00000000
  eigenvalues    EBANDS =    -13966.05809288
  atomic energy  EATOM  =     71426.16160064
  ---------------------------------------------------
  free energy    TOTEN  =      -534.31556572 eV

  energy without entropy =     -534.31556572  energy(sigma->0) =     -534.31556572


--------------------------------------------------------------------------------------------------------




--------------------------------------- Iteration      1(  19)  ---------------------------------------


    POTLOK:  cpu time      0.0423: real time      0.0423
    SETDIJ:  cpu time      0.1888: real time      0.1888
    TRIAL :  cpu time      1.1677: real time      1.1677
    CORREC:  cpu time      0.9883: real time      0.9883
    CHARGE:  cpu time      0.1830: real time      0.1830
[...]
   0.313E-12 0.283E-12 0.287E+04   0.371E-13 -.171E-13 -.286E+04   -.775E-25 0.517E-25 -.716E+01
   -.461E-13 0.323E-12 0.171E+04   -.111E-12 0.200E-13 -.171E+04   0.827E-24 -.103E-24 0.484E+00
   0.287E-12 0.200E-11 0.171E+04   0.516E-13 0.527E-14 -.171E+04   -.129E-24 -.207E-24 0.484E+00
   -.524E-13 0.105E-11 0.571E+03   -.626E-13 0.502E-13 -.570E+03   -.827E-24 -.827E-24 -.407E-01
   0.386E-12 -.118E-12 0.571E+03   0.136E-12 -.591E-13 -.570E+03   -.496E-23 0.827E-24 -.407E-01
   -.496E-13 -.185E-12 -.573E+03   0.426E-13 0.391E-13 0.573E+03   -.744E-23 -.331E-23 0.153E-01
   0.388E-12 0.394E-12 -.573E+03   0.147E-12 0.320E-13 0.573E+03   0.000E+00 -.993E-23 0.153E-01
   -.546E-13 0.150E-11 -.172E+04   -.799E-13 0.427E-13 0.172E+04   -.517E-23 0.124E-23 -.208E+00
   0.292E-12 0.165E-12 -.172E+04   -.127E-12 -.533E-13 0.172E+04   0.414E-24 -.827E-24 -.208E+00
   -.136E-13 -.919E-12 -.285E+04   -.146E-12 0.711E-14 0.285E+04   -.248E-23 0.165E-23 0.611E+01
   0.325E-12 0.364E-12 -.285E+04   -.475E-13 -.358E-14 0.285E+04   0.000E+00 0.414E-23 0.611E+01
   -.475E-13 0.717E-12 0.287E+04   0.457E-13 0.140E-13 -.286E+04   0.517E-25 -.181E-24 -.716E+01
   0.324E-12 0.151E-11 0.287E+04   -.241E-13 0.158E-13 -.286E+04   0.000E+00 -.155E-24 -.716E+01
   -.378E-13 0.123E-11 0.171E+04   0.995E-13 -.449E-13 -.171E+04   -.517E-24 0.000E+00 0.484E+00
   0.293E-12 0.112E-11 0.171E+04   0.432E-13 0.124E-14 -.171E+04   -.207E-24 0.620E-24 0.484E+00
   -.449E-13 0.343E-12 0.571E+03   0.266E-14 -.534E-13 -.570E+03   0.000E+00 0.165E-23 -.407E-01
   0.392E-12 0.411E-12 0.571E+03   0.116E-12 0.426E-13 -.570E+03   -.414E-24 0.000E+00 -.407E-01
   -.523E-13 0.869E-12 -.573E+03   0.178E-12 0.711E-14 0.573E+03   -.310E-23 0.786E-23 0.153E-01
   0.389E-12 0.502E-12 -.573E+03   0.519E-13 0.463E-13 0.573E+03   -.248E-23 0.331E-23 0.153E-01
   -.489E-13 0.559E-12 -.172E+04   0.284E-13 0.122E-13 0.172E+04   -.124E-23 -.165E-23 -.208E+00
   0.299E-12 0.100E-11 -.172E+04   -.112E-12 0.888E-14 0.172E+04   0.414E-23 -.207E-23 -.208E+00
   -.154E-13 0.286E-12 -.285E+04   -.178E-13 -.249E-13 0.285E+04   0.331E-23 0.331E-23 0.611E+01
   0.333E-12 -.455E-12 -.285E+04   -.771E-13 -.427E-13 0.285E+04   -.827E-24 -.931E-24 0.611E+01
   0.785E-12 0.291E-11 0.287E+04   0.408E-13 -.109E-13 -.286E+04   0.000E+00 0.207E-24 -.716E+01
   0.117E-11 0.290E-12 0.287E+04   0.301E-13 -.173E-13 -.286E+04   -.155E-24 -.323E-25 -.716E+01
   0.868E-12 0.296E-12 0.171E+04   0.113E-12 -.189E-13 -.171E+04   0.000E+00 0.620E-24 0.484E+00
   0.121E-11 0.391E-11 0.171E+04   0.470E-13 0.751E-14 -.171E+04   0.000E+00 0.362E-24 0.484E+00
   0.789E-12 0.778E-12 0.571E+03   0.135E-12 0.273E-13 -.570E+03   -.248E-23 -.207E-23 -.407E-01
   0.123E-11 -.131E-12 0.571E+03   0.455E-13 -.853E-13 -.570E+03   0.331E-23 -.496E-23 -.407E-01
   0.790E-12 -.189E-12 -.573E+03   0.142E-12 -.711E-14 0.573E+03   0.321E-23 -.414E-24 0.153E-01
   0.123E-11 0.495E-12 -.573E+03   0.318E-13 -.272E-14 0.573E+03   0.000E+00 -.662E-23 0.153E-01
   0.877E-12 0.370E-12 -.172E+04   -.568E-13 0.268E-13 0.172E+04   -.827E-24 0.165E-23 -.208E+00
   0.122E-11 0.178E-12 -.172E+04   0.186E-13 -.568E-13 0.172E+04   -.284E-23 0.827E-24 -.208E+00
   0.797E-12 -.926E-12 -.285E+04   -.178E-13 -.497E-13 0.285E+04   -.124E-23 0.252E-24 0.611E+01
   0.114E-11 0.401E-12 -.285E+04   -.888E-13 0.111E-13 0.285E+04   -.155E-23 0.000E+00 0.611E+01
   0.777E-12 -.943E-13 0.287E+04   0.933E-14 -.167E-13 -.286E+04   -.258E-24 -.310E-24 -.716E+01
   0.118E-11 -.172E-11 0.287E+04   0.130E-12 -.110E-13 -.286E+04   -.905E-25 -.582E-25 -.716E+01
   0.869E-12 0.424E-12 0.171E+04   0.990E-13 -.460E-13 -.171E+04   -.465E-24 -.827E-24 0.484E+00
   0.121E-11 0.248E-11 0.171E+04   0.158E-12 -.150E-13 -.171E+04   0.103E-24 -.362E-24 0.484E+00
   0.791E-12 0.136E-11 0.571E+03   0.171E-12 -.569E-13 -.570E+03   0.145E-23 0.000E+00 -.407E-01
   0.124E-11 -.215E-11 0.571E+03   0.115E-12 -.178E-14 -.570E+03   0.579E-23 0.000E+00 -.407E-01
   0.796E-12 0.313E-12 -.573E+03   0.568E-13 -.213E-13 0.573E+03   -.538E-23 0.000E+00 0.153E-01
   0.123E-11 0.245E-11 -.573E+03   0.603E-13 0.163E-15 0.573E+03   0.579E-23 -.114E-23 0.153E-01
   0.882E-12 0.731E-12 -.172E+04   -.171E-12 -.317E-15 0.172E+04   -.207E-23 -.165E-23 -.208E+00
   0.121E-11 -.391E-11 -.172E+04   0.278E-13 0.000E+00 0.172E+04   -.620E-24 0.165E-23 -.208E+00
   0.791E-12 0.397E-12 -.285E+04   -.711E-13 -.391E-13 0.285E+04   -.414E-24 0.827E-24 0.611E+01
   0.114E-11 -.902E-12 -.285E+04   0.746E-13 -.426E-13 0.285E+04   0.000E+00 -.103E-24 0.611E+01
   -.355E-13 0.593E-12 0.128E+04   -.124E-12 -.562E-14 -.128E+04   -.414E-24 0.103E-23 -.847E-01
   0.580E-13 0.202E-13 0.128E+04   -.381E-13 0.577E-14 -.128E+04   -.414E-24 0.181E-24 -.847E-01
   -.428E-13 0.566E-12 0.215E+04   -.615E-13 0.189E-13 -.216E+04   0.000E+00 0.000E+00 0.341E+01
   0.839E-13 0.862E-12 0.215E+04   -.178E-13 -.192E-13 -.216E+04   -.414E-24 -.163E-23 0.341E+01
   -.742E-13 0.108E-11 -.431E+03   -.995E-13 -.466E-13 0.431E+03   -.401E-24 -.207E-24 -.664E-01
   0.120E-12 -.269E-13 -.431E+03   -.155E-12 -.462E-13 0.431E+03   0.414E-24 0.517E-24 -.664E-01
   -.584E-13 -.256E-12 0.428E+03   -.493E-13 0.564E-13 -.428E+03   0.207E-24 -.248E-23 0.110E-01
   0.130E-12 0.155E-12 0.428E+03   -.154E-12 0.413E-13 -.428E+03   -.155E-23 0.414E-23 0.110E-01
   -.510E-13 -.310E-12 -.216E+04   -.275E-13 0.240E-14 0.216E+04   -.455E-23 -.248E-23 -.495E+01
   0.974E-13 -.741E-12 -.216E+04   -.953E-14 -.506E-13 0.216E+04   -.227E-23 0.827E-24 -.495E+01
   -.799E-13 -.269E-13 -.128E+04   0.121E-12 0.711E-13 0.128E+04   -.496E-23 0.155E-23 0.245E+00
   0.846E-13 -.195E-12 -.128E+04   0.281E-13 0.241E-15 0.128E+04   0.383E-23 -.124E-23 0.245E+00
   -.204E-13 0.424E-12 0.128E+04   -.433E-13 0.476E-14 -.128E+04   0.238E-23 -.145E-23 -.847E-01
   0.643E-13 0.889E-12 0.128E+04   -.146E-12 -.544E-14 -.128E+04   -.186E-23 -.207E-24 -.847E-01
   -.446E-13 0.983E-12 0.215E+04   -.585E-13 -.406E-13 -.216E+04   0.151E-23 -.775E-25 0.341E+01
   0.914E-13 0.754E-12 0.215E+04   -.142E-13 0.413E-14 -.216E+04   0.284E-24 0.465E-24 0.341E+01
   -.719E-13 0.350E-12 -.431E+03   -.995E-13 -.188E-13 0.431E+03   -.414E-24 0.620E-24 -.664E-01
   0.120E-12 0.296E-12 -.431E+03   -.165E-12 -.480E-13 0.431E+03   0.000E+00 -.124E-23 -.664E-01
   -.625E-13 0.418E-12 0.428E+03   -.311E-14 0.986E-13 -.428E+03   -.124E-23 -.372E-23 0.110E-01
   0.123E-12 0.391E-12 0.428E+03   -.644E-13 0.430E-13 -.428E+03   -.186E-23 0.703E-23 0.110E-01
   -.442E-13 -.579E-12 -.216E+04   0.853E-13 0.201E-13 0.216E+04   -.165E-23 -.827E-24 -.495E+01
   0.102E-12 -.242E-12 -.216E+04   -.584E-13 0.311E-13 0.216E+04   0.000E+00 0.000E+00 -.495E+01
   -.690E-13 0.593E-12 -.128E+04   0.426E-13 0.568E-13 0.128E+04   -.414E-24 0.287E-23 0.245E+00
   0.863E-13 -.209E-12 -.128E+04   0.106E-12 0.852E-13 0.128E+04   -.165E-23 0.827E-24 0.245E+00
   0.334E-12 0.680E-12 0.128E+04   -.777E-15 0.264E-13 -.128E+04   0.145E-23 0.569E-24 -.847E-01
   0.493E-12 0.000E+00 0.128E+04   -.969E-13 0.844E-14 -.128E+04   0.414E-23 -.207E-24 -.847E-01
   0.286E-12 0.633E-12 0.215E+04   0.405E-14 0.351E-13 -.216E+04   -.165E-23 0.931E-24 0.341E+01
   0.455E-12 0.147E-11 0.215E+04   -.277E-13 -.212E-14 -.216E+04   0.620E-24 -.114E-23 0.341E+01
   0.302E-12 0.404E-11 -.431E+03   -.106E-12 -.433E-13 0.431E+03   0.000E+00 0.620E-24 -.664E-01
   0.496E-12 -.135E-13 -.431E+03   -.554E-13 -.213E-13 0.431E+03   0.000E+00 0.000E+00 -.664E-01
   0.281E-12 -.256E-12 0.428E+03   -.919E-13 0.293E-13 -.428E+03   -.186E-23 -.248E-23 0.110E-01
   0.488E-12 0.381E-11 0.428E+03   -.723E-14 0.381E-13 -.428E+03   0.207E-24 -.103E-22 0.110E-01
   0.258E-12 0.808E-13 -.216E+04   0.133E-13 -.143E-13 0.216E+04   -.827E-24 0.496E-23 -.495E+01
   0.443E-12 -.660E-12 -.216E+04   -.115E-13 -.711E-14 0.216E+04   0.414E-24 -.165E-23 -.495E+01
   0.344E-12 -.471E-13 -.128E+04   0.853E-13 0.711E-13 0.128E+04   0.000E+00 -.620E-24 0.245E+00
   0.488E-12 0.341E-11 -.128E+04   0.149E-12 -.154E-14 0.128E+04   0.000E+00 -.414E-24 0.245E+00
   0.310E-12 0.330E-12 0.128E+04   -.133E-12 0.863E-14 -.128E+04   0.114E-23 0.414E-24 -.847E-01
   0.482E-12 -.240E-11 0.128E+04   -.150E-13 -.144E-14 -.128E+04   0.129E-23 -.414E-24 -.847E-01
   0.294E-12 0.889E-12 0.215E+04   -.284E-13 -.359E-13 -.216E+04   0.103E-24 0.517E-24 0.341E+01
   0.447E-12 0.230E-11 0.215E+04   -.353E-13 0.179E-15 -.216E+04   0.000E+00 0.414E-24 0.341E+01
   0.303E-12 -.342E-11 -.431E+03   -.135E-12 0.696E-14 0.431E+03   0.145E-23 0.000E+00 -.664E-01
   0.498E-12 0.795E-12 -.431E+03   -.989E-13 -.426E-13 0.431E+03   0.000E+00 0.827E-24 -.664E-01
   0.278E-12 0.108E-12 0.428E+03   -.533E-13 0.104E-12 -.428E+03   0.827E-24 0.124E-23 0.110E-01
   0.494E-12 -.146E-11 0.428E+03   -.800E-14 0.443E-13 -.428E+03   -.310E-23 0.455E-23 0.110E-01
   0.262E-12 -.444E-12 -.216E+04   -.639E-13 0.215E-13 0.216E+04   0.414E-24 0.165E-23 -.495E+01
   0.444E-12 -.269E-11 -.216E+04   0.783E-13 0.142E-13 0.216E+04   -.165E-23 0.827E-24 -.495E+01
   0.332E-12 -.236E-12 -.128E+04   0.142E-12 0.497E-13 0.128E+04   0.827E-24 -.227E-23 0.245E+00
   0.493E-12 -.209E-12 -.128E+04   0.853E-13 0.853E-13 0.128E+04   -.455E-23 -.414E-24 0.245E+00
 -----------------------------------------------------------------------------------------------
   0.383E-10 0.355E-10 0.179E+02   -.234E-12 0.275E-12 -.955E-11   -.362E-22 -.558E-23 -.179E+02


 POSITION                                       TOTAL-FORCE (eV/Angst)
 -----------------------------------------------------------------------------------
      0.00000      6.33074      7.50000         0.000000     -0.000000      0.337782
      2.11025      0.00000      7.50000         0.000000     -0.000000      0.337782
      0.00000      0.00000      9.61025         0.000000      0.000000      0.088285
      2.11025      6.33074      9.61025        -0.000000     -0.000000      0.088285
     -0.00000      6.33074     11.73003        -0.000000     -0.000000     -0.002370
      2.11025     -0.00000     11.73003         0.000000      0.000000     -0.002370
     -0.00000      0.00000     13.84725         0.000000     -0.000000      0.009640
      2.11025      6.33074     13.84725         0.000000     -0.000000      0.009640
      0.00000      6.33074     15.97048         0.000000     -0.000000      0.009434
      2.11025     -0.00000     15.97048         0.000000     -0.000000      0.009434
     -0.00000      0.00000     18.07376        -0.000000     -0.000000      0.009877
      2.11025      6.33074     18.07376        -0.000000     -0.000000      0.009877
      0.00000      2.11025      7.50000         0.000000     -0.000000      0.337782
      2.11025      4.22049      7.50000         0.000000      0.000000      0.337782
      0.00000      4.22049      9.61025        -0.000000     -0.000000      0.088285
      2.11025      2.11025      9.61025        -0.000000      0.000000      0.088285
      0.00000      2.11025     11.73003        -0.000000     -0.000000     -0.002370
      2.11025      4.22049     11.73003        -0.000000      0.000000     -0.002370
      0.00000      4.22049     13.84725         0.000000     -0.000000      0.009640
      2.11025      2.11025     13.84725         0.000000      0.000000      0.009640
      0.00000      2.11025     15.97048         0.000000     -0.000000      0.009434
      2.11025      4.22049     15.97048         0.000000      0.000000      0.009434
     -0.00000      4.22049     18.07376         0.000000      0.000000      0.009877
      2.11025      2.11025     18.07376        -0.000000      0.000000      0.009877
      4.22049      6.33074      7.50000        -0.000000      0.000000      0.337782
      6.33074      0.00000      7.50000        -0.000000      0.000000      0.337782
      4.22049      0.00000      9.61025        -0.000000      0.000000      0.088285
      6.33074      6.33074      9.61025         0.000000     -0.000000      0.088285
      4.22049      6.33074     11.73003         0.000000      0.000000     -0.002370
      6.33074      0.00000     11.73003         0.000000      0.000000     -0.002370
      4.22049     -0.00000     13.84725        -0.000000      0.000000      0.009640
      6.33074      6.33074     13.84725         0.000000     -0.000000      0.009640
      4.22049      6.33074     15.97048         0.000000      0.000000      0.009434
      6.33074     -0.00000     15.97048         0.000000     -0.000000      0.009434
      4.22049      0.00000     18.07376         0.000000     -0.000000      0.009877
      6.33074      6.33074     18.07376        -0.000000      0.000000      0.009877
      4.22049      2.11025      7.50000        -0.000000      0.000000      0.337782
      6.33074      4.22049      7.50000         0.000000     -0.000000      0.337782
      4.22049      4.22049      9.61025        -0.000000     -0.000000      0.088285
      6.33074      2.11025      9.61025         0.000000      0.000000      0.088285
      4.22049      2.11025     11.73003         0.000000     -0.000000     -0.002370
      6.33074      4.22049     11.73003         0.000000     -0.000000     -0.002370
      4.22049      4.22049     13.84725         0.000000      0.000000      0.009640
      6.33074      2.11025     13.84725         0.000000     -0.000000      0.009640
      4.22049      2.11025     15.97048         0.000000     -0.000000      0.009434
      6.33074      4.22049     15.97048        -0.000000      0.000000      0.009434
      4.22049      4.22049     18.07376         0.000000     -0.000000      0.009877
      6.33074      2.11025     18.07376        -0.000000      0.000000      0.009877
      0.00000      6.33074      9.61025         0.000000     -0.000000      0.065550
      2.11025      0.00000      9.61025         0.000000      0.000000      0.065550
      0.00000      0.00000      7.50000        -0.000000     -0.000000     -0.500431
      2.11025      6.33074      7.50000        -0.000000      0.000000     -0.500431
      0.00000      6.33074     13.84873         0.000000     -0.000000     -0.005505
      2.11025     -0.00000     13.84873         0.000000      0.000000     -0.005505
     -0.00000      0.00000     11.73012        -0.000000      0.000000     -0.007284
      2.11025      6.33074     11.73012        -0.000000      0.000000     -0.007284
     -0.00000      6.33074     18.11973         0.000000      0.000000      0.001043
      2.11025      0.00000     18.11973         0.000000     -0.000000      0.001043
      0.00000      0.00000     15.96471         0.000000     -0.000000     -0.006021
      2.11025      6.33074     15.96471        -0.000000     -0.000000     -0.006021
      0.00000      2.11025      9.61025         0.000000      0.000000      0.065550
      2.11025      4.22049      9.61025         0.000000     -0.000000      0.065550
      0.00000      4.22049      7.50000         0.000000      0.000000     -0.500431
      2.11025      2.11025      7.50000         0.000000     -0.000000     -0.500431
      0.00000      2.11025     13.84873         0.000000     -0.000000     -0.005505
      2.11025      4.22049     13.84873         0.000000      0.000000     -0.005505
      0.00000      4.22049     11.73012         0.000000      0.000000     -0.007284
      2.11025      2.11025     11.73012         0.000000      0.000000     -0.007284
      0.00000      2.11025     18.11973         0.000000     -0.000000      0.001043
      2.11025      4.22049     18.11973         0.000000      0.000000      0.001043
     -0.00000      4.22049     15.96471        -0.000000      0.000000     -0.006021
      2.11025      2.11025     15.96471        -0.000000      0.000000     -0.006021
      4.22049      6.33074      9.61025         0.000000     -0.000000      0.065550
      6.33074      0.00000      9.61025         0.000000     -0.000000      0.065550
      4.22049      0.00000      7.50000        -0.000000     -0.000000     -0.500431
      6.33074      6.33074      7.50000        -0.000000     -0.000000     -0.500431
      4.22049      6.33074     13.84873         0.000000      0.000000     -0.005505
      6.33074      0.00000     13.84873         0.000000     -0.000000     -0.005505
      4.22049     -0.00000     11.73012         0.000000     -0.000000     -0.007284
      6.33074      6.33074     11.73012         0.000000     -0.000000     -0.007284
      4.22049      6.33074     18.11973        -0.000000      0.000000      0.001043
      6.33074      0.00000     18.11973         0.000000     -0.000000      0.001043
      4.22049     -0.00000     15.96471        -0.000000     -0.000000     -0.006021
      6.33074      6.33074     15.96471         0.000000     -0.000000     -0.006021
      4.22049      2.11025      9.61025         0.000000     -0.000000      0.065550
      6.33074      4.22049      9.61025         0.000000     -0.000000      0.065550
      4.22049      4.22049      7.50000         0.000000      0.000000     -0.500431
      6.33074      2.11025      7.50000        -0.000000     -0.000000     -0.500431
      4.22049      2.11025     13.84873         0.000000     -0.000000     -0.005505
      6.33074      4.22049     13.84873         0.000000      0.000000     -0.005505
      4.22049      4.22049     11.73012        -0.000000      0.000000     -0.007284
      6.33074      2.11025     11.73012         0.000000     -0.000000     -0.007284
      4.22049      2.11025     18.11973         0.000000     -0.000000      0.001043
      6.33074      4.22049     18.11973        -0.000000     -0.000000      0.001043
      4.22049      4.22049     15.96471         0.000000     -0.000000     -0.006021
      6.33074      2.11025     15.96471        -0.000000      0.000000     -0.006021
 -----------------------------------------------------------------------------------
    total drift:                                0.000000      0.000000      0.028612


--------------------------------------------------------------------------------------------------------



  FREE ENERGIE OF THE ION-ELECTRON SYSTEM (eV)
  ---------------------------------------------------
  free  energy   TOTEN  =      -562.02918088 eV

  energy  without entropy=     -562.02918088  energy(sigma->0) =     -562.02918088

 d Force = 0.2359774E-04[-0.693E-06, 0.479E-04]  d Energy = 0.1995068E-04 0.365E-05
 d Force =-0.2419122E+02[-0.242E+02,-0.242E+02]  d Ewald  =-0.2419122E+02-0.193E-07


--------------------------------------------------------------------------------------------------------


    POTLOK:  cpu time      0.5652: real time      0.5653


--------------------------------------------------------------------------------------------------------




--------------------------------------------------------------------------------------------------------


  
 reached required accuracy - stopping structural energy minimisation
     LOOP+:  cpu time     54.1807: real time     54.2709
    4ORBIT:  cpu time      0.0000: real time      0.0000

 total amount of memory used by VASP MPI-rank0    61675. kBytes
=======================================================================

   base      :      30000. kBytes
   nonl-proj :      16450. kBytes
   fftplans  :       2956. kBytes
   grid      :       4369. kBytes
   one-center:         97. kBytes
   wavefun   :       7803. kBytes

  
  
 General timing and accounting informations for this job:
 ========================================================
  
                  Total CPU time used (sec):     1264.214
                            User time (sec):     1260.523
                          System time (sec):        3.692
                         Elapsed time (sec):     1276.954
  
                   Maximum memory used (kb):      172184.
                   Average memory used (kb):          N/A
  
                          Minor page faults:        41605
                          Major page faults:           52
                 Voluntary context switches:        23128
