 vasp.6.3.0 20Jan22 (build Apr  1 2022 16:44:48) complex                         
 executed on        HPECrayEX_GCC date 2023.05.17  21:47:32
 running  512 mpi-ranks, with    1 threads/rank
 distrk:  each k-point on  256 cores,    2 groups
 distr:  one band on NCORE=   4 cores,   64 groups


--------------------------------------------------------------------------------------------------------


 INCAR:
   SYSTEM = MgO-rocksalt
   ISMEAR = 0
   SIGMA = 0.05
   EDIFF = 1E-6
   ALGO = ALL
   ISTART = 0
   IBRION = -1
   NSW = 0
   ISYM = 2
   ISIF = 2
   EDIFFG = -0.01
   DIPOL = 0.5 0.5 0.5
   IDIPOL = 3
   LDIPOL = .TRUE.
   GGA = RE
   IVDW = 13
   VDW_S8 = 1.7468
   VDW_A1 = 0.5363
   VDW_A2 = 3.0726
   ENCUT = 600
   PREC = Normal
   LASPH = .TRUE.
   LREAL = .FALSE.
   ISPIN = 1
   NELM = 200
   NELMIN = 8
   NCORE = 4
   KPAR = 2
   LWAVE = .FALSE.
   LCHARG = .FALSE.

 POTCAR:    PAW_PBE C 08Apr2002                   
 POTCAR:    PAW_PBE O 08Apr2002                   
 POTCAR:    PAW_PBE Mg_pv 13Apr2007               
 POTCAR:    PAW_PBE O 08Apr2002                   
 POTCAR:    PAW_PBE C 08Apr2002                   
   SHA256 =  253f7b50bb8d59471dbedb8285d89021f4a42ed1a2c5d38a03a736e69125dd95 C/POTCAR              
   COPYR  = (c) Copyright 08Apr2002 Georg Kresse                                                    
   COPYR  = This file is part of the software VASP. Any use, copying, and all other rights are regul
   COPYR  = If you do not have a valid VASP license, you may not use, copy or distribute this file. 
   VRHFIN =C: s2p2                                                                                  
   LEXCH  = PE                                                                                      
   EATOM  =   147.1560 eV,   10.8157 Ry                                                             
                                                                                                    
   TITEL  = PAW_PBE C 08Apr2002                                                                     
   LULTRA =        F    use ultrasoft PP ?                                                          
   IUNSCR =        1    unscreen: 0-lin 1-nonlin 2-no                                               
   RPACOR =    1.200    partial core radius                                                         
   POMASS =   12.011; ZVAL   =    4.000    mass and valenz                                          
   RCORE  =    1.500    outmost cutoff radius                                                       
   RWIGS  =    1.630; RWIGS  =    0.863    wigner-seitz radius (au A)                               
   ENMAX  =  400.000; ENMIN  =  300.000 eV                                                          
   ICORE  =        2    local potential                                                             
   LCOR   =        T    correct aug charges                                                         
   LPAW   =        T    paw PP                                                                      
   EAUG   =  644.873                                                                                
   DEXC   =    0.000                                                                                
   RMAX   =    1.529    core radius for proj-oper                                                   
   RAUG   =    1.300    factor for augmentation sphere                                              
   RDEP   =    1.501    radius for radial grids                                                     
   RDEPT  =    1.300    core radius for aug-charge                                                  
                                                                                                    
   Atomic configuration                                                                             
    4 entries                                                                                       
     n  l   j            E        occ.                                                              
     1  0  0.50      -273.3789   2.0000                                                             
     2  0  0.50       -13.7508   2.0000                                                             
     2  1  0.50        -5.2854   2.0000                                                             
     3  2  1.50        -5.4423   0.0000                                                             
   Description                                                                                      
     l       E           TYP  RCUT    TYP  RCUT                                                     
     0    -13.7508458     23  1.200                                                                 
     0     -8.2022199     23  1.200                                                                 
     1     -5.2854383     23  1.500                                                                 
     1     34.0145650     23  1.500                                                                 
     2     -5.4423304      7  1.500                                                                 
  local pseudopotential read in
  partial core-charges read in
  partial kinetic energy density read in
  atomic valenz-charges read in
  non local Contribution for L=           0  read in
    real space projection operators read in
  non local Contribution for L=           0  read in
    real space projection operators read in
  non local Contribution for L=           1  read in
    real space projection operators read in
  non local Contribution for L=           1  read in
    real space projection operators read in
    PAW grid and wavefunctions read in

   number of l-projection  operators is LMAX  =           4
   number of lm-projection operators is LMMAX =           8

 POTCAR:    PAW_PBE O 08Apr2002                   
   SHA256 =  818f92134a0a090dccd8ba1447fa70422a3b330e708bb4f08108d8ae51209ddf O/POTCAR              
   COPYR  = (c) Copyright 08Apr2002 Georg Kresse                                                    
   COPYR  = This file is part of the software VASP. Any use, copying, and all other rights are regul
   COPYR  = If you do not have a valid VASP license, you may not use, copy or distribute this file. 
   VRHFIN =O: s2p4                                                                                  
   LEXCH  = PE                                                                                      
   EATOM  =   432.3788 eV,   31.7789 Ry                                                             
                                                                                                    
   TITEL  = PAW_PBE O 08Apr2002                                                                     
   LULTRA =        F    use ultrasoft PP ?                                                          
   IUNSCR =        1    unscreen: 0-lin 1-nonlin 2-no                                               
   RPACOR =    1.200    partial core radius                                                         
   POMASS =   16.000; ZVAL   =    6.000    mass and valenz                                          
   RCORE  =    1.520    outmost cutoff radius                                                       
   RWIGS  =    1.550; RWIGS  =    0.820    wigner-seitz radius (au A)                               
   ENMAX  =  400.000; ENMIN  =  300.000 eV                                                          
   ICORE  =        2    local potential                                                             
   LCOR   =        T    correct aug charges                                                         
   LPAW   =        T    paw PP                                                                      
   EAUG   =  605.392                                                                                
   DEXC   =    0.000                                                                                
   RMAX   =    1.553    core radius for proj-oper                                                   
   RAUG   =    1.300    factor for augmentation sphere                                              
   RDEP   =    1.550    radius for radial grids                                                     
   RDEPT  =    1.329    core radius for aug-charge                                                  
                                                                                                    
   Atomic configuration                                                                             
    4 entries                                                                                       
     n  l   j            E        occ.                                                              
     1  0  0.50      -514.6923   2.0000                                                             
     2  0  0.50       -23.9615   2.0000                                                             
     2  1  0.50        -9.0305   4.0000                                                             
     3  2  1.50        -9.5241   0.0000                                                             
   Description                                                                                      
     l       E           TYP  RCUT    TYP  RCUT                                                     
     0    -23.9615318     23  1.200                                                                 
     0     -9.5240782     23  1.200                                                                 
     1     -9.0304911     23  1.520                                                                 
     1      8.1634956     23  1.520                                                                 
     2     -9.5240782      7  1.500                                                                 
  local pseudopotential read in
  partial core-charges read in
  partial kinetic energy density read in
  kinetic energy density of atom read in
  atomic valenz-charges read in
  non local Contribution for L=           0  read in
    real space projection operators read in
  non local Contribution for L=           0  read in
    real space projection operators read in
  non local Contribution for L=           1  read in
    real space projection operators read in
  non local Contribution for L=           1  read in
    real space projection operators read in
    PAW grid and wavefunctions read in

   number of l-projection  operators is LMAX  =           4
   number of lm-projection operators is LMMAX =           8

 POTCAR:    PAW_PBE Mg_pv 13Apr2007               
   SHA256 =  f474ac0dd33840b9ae76c01d57fea79fdf77cdfbb07d5ade72c65f83c709b62b Mg_pv/POTCAR          
   COPYR  = (c) Copyright 13Apr2007 Georg Kresse                                                    
   COPYR  = This file is part of the software VASP. Any use, copying, and all other rights are regul
   COPYR  = If you do not have a valid VASP license, you may not use, copy or distribute this file. 
   VRHFIN =Mg: p6s2                                                                                 
   LEXCH  = PE                                                                                      
   EATOM  =  1056.7344 eV,   77.6678 Ry                                                             
                                                                                                    
   TITEL  = PAW_PBE Mg_pv 13Apr2007                                                                 
   LULTRA =        F    use ultrasoft PP ?                                                          
   IUNSCR =        1    unscreen: 0-lin 1-nonlin 2-no                                               
   RPACOR =    1.500    partial core radius                                                         
   POMASS =   24.305; ZVAL   =    8.000    mass and valenz                                          
   RCORE  =    2.000    outmost cutoff radius                                                       
   RWIGS  =    2.000; RWIGS  =    1.058    wigner-seitz radius (au A)                               
   ENMAX  =  403.929; ENMIN  =  302.947 eV                                                          
   RCLOC  =    1.506    cutoff for local pot                                                        
   LCOR   =        T    correct aug charges                                                         
   LPAW   =        T    paw PP                                                                      
   EAUG   =  758.780                                                                                
   DEXC   =    0.000                                                                                
   RMAX   =    2.045    core radius for proj-oper                                                   
   RAUG   =    1.300    factor for augmentation sphere                                              
   RDEP   =    2.025    radius for radial grids                                                     
   RDEPT  =    1.557    core radius for aug-charge                                                  
                                                                                                    
   Atomic configuration                                                                             
    5 entries                                                                                       
     n  l   j            E        occ.                                                              
     1  0  0.50     -1259.6230   2.0000                                                             
     2  0  0.50       -79.8442   2.0000                                                             
     2  1  1.50       -46.6121   6.0000                                                             
     3  0  0.50        -4.7055   2.0000                                                             
     3  2  1.50        -1.3606   0.0000                                                             
   Description                                                                                      
     l       E           TYP  RCUT    TYP  RCUT                                                     
     1    -46.6121073     23  1.600                                                                 
     1      2.7211652     23  1.600                                                                 
     0     -4.7054661     23  2.000                                                                 
     0     61.2262170     23  2.000                                                                 
     2     -1.3605826     23  2.000                                                                 
  local pseudopotential read in
  partial core-charges read in
  partial kinetic energy density read in
  atomic valenz-charges read in
  non local Contribution for L=           1  read in
    real space projection operators read in
  non local Contribution for L=           1  read in
    real space projection operators read in
  non local Contribution for L=           0  read in
    real space projection operators read in
  non local Contribution for L=           0  read in
    real space projection operators read in
  non local Contribution for L=           2  read in
    real space projection operators read in
    PAW grid and wavefunctions read in

   number of l-projection  operators is LMAX  =           5
   number of lm-projection operators is LMMAX =          13

 POTCAR:    PAW_PBE O 08Apr2002                   
   SHA256 =  818f92134a0a090dccd8ba1447fa70422a3b330e708bb4f08108d8ae51209ddf O/POTCAR              
   COPYR  = (c) Copyright 08Apr2002 Georg Kresse                                                    
   COPYR  = This file is part of the software VASP. Any use, copying, and all other rights are regul
   COPYR  = If you do not have a valid VASP license, you may not use, copy or distribute this file. 
   VRHFIN =O: s2p4                                                                                  
   LEXCH  = PE                                                                                      
   EATOM  =   432.3788 eV,   31.7789 Ry                                                             
                                                                                                    
   TITEL  = PAW_PBE O 08Apr2002                                                                     
   LULTRA =        F    use ultrasoft PP ?                                                          
   IUNSCR =        1    unscreen: 0-lin 1-nonlin 2-no                                               
   RPACOR =    1.200    partial core radius                                                         
   POMASS =   16.000; ZVAL   =    6.000    mass and valenz                                          
   RCORE  =    1.520    outmost cutoff radius                                                       
   RWIGS  =    1.550; RWIGS  =    0.820    wigner-seitz radius (au A)                               
   ENMAX  =  400.000; ENMIN  =  300.000 eV                                                          
   ICORE  =        2    local potential                                                             
   LCOR   =        T    correct aug charges                                                         
   LPAW   =        T    paw PP                                                                      
   EAUG   =  605.392                                                                                
   DEXC   =    0.000                                                                                
   RMAX   =    1.553    core radius for proj-oper                                                   
   RAUG   =    1.300    factor for augmentation sphere                                              
   RDEP   =    1.550    radius for radial grids                                                     
   RDEPT  =    1.329    core radius for aug-charge                                                  
                                                                                                    
   Atomic configuration                                                                             
    4 entries                                                                                       
     n  l   j            E        occ.                                                              
     1  0  0.50      -514.6923   2.0000                                                             
     2  0  0.50       -23.9615   2.0000                                                             
     2  1  0.50        -9.0305   4.0000                                                             
     3  2  1.50        -9.5241   0.0000                                                             
   Description                                                                                      
     l       E           TYP  RCUT    TYP  RCUT                                                     
     0    -23.9615318     23  1.200                                                                 
     0     -9.5240782     23  1.200                                                                 
     1     -9.0304911     23  1.520                                                                 
     1      8.1634956     23  1.520                                                                 
     2     -9.5240782      7  1.500                                                                 
  local pseudopotential read in
  partial core-charges read in
  partial kinetic energy density read in
  kinetic energy density of atom read in
  atomic valenz-charges read in
  non local Contribution for L=           0  read in
    real space projection operators read in
  non local Contribution for L=           0  read in
    real space projection operators read in
  non local Contribution for L=           1  read in
    real space projection operators read in
  non local Contribution for L=           1  read in
    real space projection operators read in
    PAW grid and wavefunctions read in

   number of l-projection  operators is LMAX  =           4
   number of lm-projection operators is LMMAX =           8

 -----------------------------------------------------------------------------
|                                                                             |
|               ----> ADVICE to this user running VASP <----                  |
|                                                                             |
|     You have a (more or less) 'large supercell' and for larger cells it     |
|     might be more efficient to use real-space projection operators.         |
|     Therefore, try LREAL= Auto in the INCAR file.                           |
|     Mind: For very accurate calculation, you might also keep the            |
|     reciprocal projection scheme (i.e. LREAL=.FALSE.).                      |
|                                                                             |
 -----------------------------------------------------------------------------

 -----------------------------------------------------------------------------
|                                                                             |
|               ----> ADVICE to this user running VASP <----                  |
|                                                                             |
|     You enforced a specific xc type in the INCAR file but a different       |
|     type was found in the POTCAR file.                                      |
|     I HOPE YOU KNOW WHAT YOU ARE DOING!                                     |
|                                                                             |
 -----------------------------------------------------------------------------

  PAW_PBE C 08Apr2002                   :
 energy of atom  1       EATOM= -147.1560
 kinetic energy error for atom=    0.0057 (will be added to EATOM!!)
  PAW_PBE O 08Apr2002                   :
 energy of atom  2       EATOM= -432.3788
 kinetic energy error for atom=    0.0168 (will be added to EATOM!!)
  PAW_PBE Mg_pv 13Apr2007               :
 energy of atom  3       EATOM=-1056.7344
 kinetic energy error for atom=    0.0221 (will be added to EATOM!!)
  PAW_PBE O 08Apr2002                   :
 energy of atom  4       EATOM= -432.3788
 kinetic energy error for atom=    0.0168 (will be added to EATOM!!)


 POSCAR:  C  O Mg  O
  positions in direct lattice
  No initial velocities read in
 -----------------------------------------------------------------------------
|                                                                             |
|           W    W    AA    RRRRR   N    N  II  N    N   GGGG   !!!           |
|           W    W   A  A   R    R  NN   N  II  NN   N  G    G  !!!           |
|           W    W  A    A  R    R  N N  N  II  N N  N  G       !!!           |
|           W WW W  AAAAAA  RRRRR   N  N N  II  N  N N  G  GGG   !            |
|           WW  WW  A    A  R   R   N   NN  II  N   NN  G    G                |
|           W    W  A    A  R    R  N    N  II  N    N   GGGG   !!!           |
|                                                                             |
|     Specifying the vdW parameters                                           |
|     VDW_S8 = 1.747                                                          |
|     VDW_A1 = 0.536                                                          |
|     VDW_A2 = 3.073                                                          |
|     in the INCAR file will overwrite the defaults for revpbe. Please        |
|     make sure that is what you intended.                                    |
|                                                                             |
 -----------------------------------------------------------------------------

 exchange correlation table for  LEXCH =       40
   RHO(1)=    0.500       N(1)  =     2000
   RHO(2)=  100.500       N(2)  =     4000



--------------------------------------------------------------------------------------------------------


 ion  position               nearest neighbor table
   1  0.500  0.500  0.772-   2 1.15
   2  0.500  0.500  0.825-   1 1.15
   3  0.000  0.750  0.352-  35 2.11  37 2.11  38 2.11  45 2.11  54 2.11
   4  0.250  0.000  0.352-  36 2.11  37 2.11  38 2.11  46 2.11  53 2.11
   5  0.000  0.000  0.451-  37 2.11  36 2.11  35 2.11  43 2.11  52 2.11  41 2.12
   6  0.250  0.750  0.451-  38 2.11  36 2.11  35 2.11  44 2.11  51 2.11  42 2.12
   7  0.000  0.750  0.550-  49 2.11  42 2.11  58 2.11  41 2.11  35 2.12  39 2.15
   8  0.250  0.000  0.550-  57 2.11  50 2.11  42 2.11  41 2.11  36 2.12  40 2.15
   9  0.000  0.000  0.649-  39 2.11  40 2.11  47 2.11  56 2.11  41 2.11
  10  0.250  0.750  0.649-  42 2.11  40 2.11  39 2.11  48 2.11  55 2.11
  11  0.000  0.250  0.352-  43 2.11  37 2.11  45 2.11  46 2.11  62 2.11
  12  0.250  0.500  0.352-  44 2.11  38 2.11  45 2.11  46 2.11  61 2.11
  13  0.000  0.500  0.451-  45 2.11  43 2.11  44 2.11  35 2.11  60 2.11  49 2.12
  14  0.250  0.250  0.451-  46 2.11  43 2.11  44 2.11  36 2.11  59 2.11  50 2.12
  15  0.000  0.250  0.550-  49 2.11  50 2.11  66 2.11  41 2.11  43 2.12  47 2.15
  16  0.250  0.500  0.550-  65 2.11  50 2.11  42 2.11  49 2.11  44 2.13  48 2.15
  17  0.000  0.500  0.649-  48 2.10  64 2.10  49 2.11  47 2.11  39 2.11
  18  0.250  0.250  0.649-  50 2.11  47 2.11  40 2.11  48 2.11  63 2.11
  19  0.500  0.750  0.352-  51 2.11  38 2.11  53 2.11  54 2.11  61 2.11
  20  0.750  0.000  0.352-  52 2.11  37 2.11  53 2.11  54 2.11  62 2.11
  21  0.500  0.000  0.451-  53 2.11  51 2.11  52 2.11  36 2.11  59 2.11  57 2.12
  22  0.750  0.750  0.451-  54 2.11  51 2.11  52 2.11  35 2.11  60 2.11  58 2.12
  23  0.500  0.750  0.550-  65 2.11  58 2.11  42 2.11  57 2.11  51 2.13  55 2.15
  24  0.750  0.000  0.550-  57 2.11  58 2.11  66 2.11  41 2.11  52 2.12  56 2.15
  25  0.500  0.000  0.649-  55 2.10  63 2.10  57 2.11  40 2.11  56 2.11
  26  0.750  0.750  0.649-  58 2.11  56 2.11  39 2.11  55 2.11  64 2.11
  27  0.500  0.250  0.352-  59 2.11  53 2.11  46 2.11  61 2.11  62 2.11
  28  0.750  0.500  0.352-  60 2.11  54 2.11  45 2.11  61 2.11  62 2.11
  29  0.500  0.500  0.451-  61 2.11  51 2.11  59 2.11  60 2.11  44 2.11  65 2.13
  30  0.750  0.250  0.451-  62 2.11  52 2.11  59 2.11  60 2.11  43 2.11  66 2.12
  31  0.500  0.250  0.550-  65 2.11  50 2.11  66 2.11  57 2.11  59 2.13  63 2.15
  32  0.750  0.500  0.550-  65 2.11  58 2.11  66 2.11  49 2.11  60 2.13  64 2.15
  33  0.500  0.500  0.651-  48 2.12  55 2.12  63 2.12  64 2.12  65 2.14
  34  0.750  0.250  0.649-  66 2.11  56 2.11  47 2.11  64 2.11  63 2.11
  35  0.000  0.750  0.451-   3 2.11   5 2.11   6 2.11  13 2.11  22 2.11   7 2.12
  36  0.250  0.000  0.451-   4 2.11   5 2.11   6 2.11  14 2.11  21 2.11   8 2.12
  37  0.000  0.000  0.352-   5 2.11   4 2.11   3 2.11  11 2.11  20 2.11
  38  0.250  0.750  0.352-   6 2.11   4 2.11   3 2.11  12 2.11  19 2.11
  39  0.000  0.750  0.651-   9 2.11  10 2.11  26 2.11  17 2.11   7 2.15
  40  0.250  0.000  0.651-   9 2.11  10 2.11  18 2.11  25 2.11   8 2.15
  41  0.000  0.000  0.550-   9 2.11   8 2.11   7 2.11  15 2.11  24 2.11   5 2.12
  42  0.250  0.750  0.550-  10 2.11   8 2.11   7 2.11  16 2.11  23 2.11   6 2.12
  43  0.000  0.250  0.451-  11 2.11   5 2.11  13 2.11  14 2.11  30 2.11  15 2.12
  44  0.250  0.500  0.451-  12 2.11   6 2.11  13 2.11  14 2.11  29 2.11  16 2.13
  45  0.000  0.500  0.352-  13 2.11  11 2.11  12 2.11   3 2.11  28 2.11
  46  0.250  0.250  0.352-  14 2.11  11 2.11  12 2.11   4 2.11  27 2.11
  47  0.000  0.250  0.651-   9 2.11  18 2.11  34 2.11  17 2.11  15 2.15
  48  0.249  0.500  0.651-  17 2.10  10 2.11  18 2.11  33 2.12  16 2.15
  49  0.000  0.500  0.550-  17 2.11  15 2.11   7 2.11  16 2.11  32 2.11  13 2.12
  50  0.250  0.250  0.550-  18 2.11  15 2.11   8 2.11  16 2.11  31 2.11  14 2.12
  51  0.500  0.750  0.451-  19 2.11   6 2.11  21 2.11  22 2.11  29 2.11  23 2.13
  52  0.750  0.000  0.451-  20 2.11   5 2.11  21 2.11  22 2.11  30 2.11  24 2.12
  53  0.500  0.000  0.352-  21 2.11  19 2.11  20 2.11   4 2.11  27 2.11
  54  0.750  0.750  0.352-  22 2.11  19 2.11  20 2.11   3 2.11  28 2.11
  55  0.500  0.751  0.651-  25 2.10  10 2.11  26 2.11  33 2.12  23 2.15
  56  0.750  0.000  0.651-   9 2.11  26 2.11  34 2.11  25 2.11  24 2.15
  57  0.500  0.000  0.550-  25 2.11  24 2.11   8 2.11  23 2.11  31 2.11  21 2.12
  58  0.750  0.750  0.550-  26 2.11  24 2.11   7 2.11  32 2.11  23 2.11  22 2.12
  59  0.500  0.250  0.451-  27 2.11  21 2.11  14 2.11  29 2.11  30 2.11  31 2.13
  60  0.750  0.500  0.451-  28 2.11  22 2.11  13 2.11  29 2.11  30 2.11  32 2.13
  61  0.500  0.500  0.352-  29 2.11  19 2.11  27 2.11  28 2.11  12 2.11
  62  0.750  0.250  0.352-  30 2.11  20 2.11  27 2.11  28 2.11  11 2.11
  63  0.500  0.249  0.651-  25 2.10  18 2.11  34 2.11  33 2.12  31 2.15
  64  0.751  0.500  0.651-  17 2.10  26 2.11  34 2.11  33 2.12  32 2.15
  65  0.500  0.500  0.550-  16 2.11  23 2.11  31 2.11  32 2.11  29 2.13  33 2.14
  66  0.750  0.250  0.550-  34 2.11  24 2.11  15 2.11  32 2.11  31 2.11  30 2.12

  LATTYP: Found a simple tetragonal cell.
 ALAT       =     8.4409846542
 C/A-ratio  =     2.5270438657
  
  Lattice vectors:
  
 A1 = (   8.4409846542,   0.0000000000,   0.0000000000)
 A2 = (   0.0000000000,   8.4409846542,   0.0000000000)
 A3 = (   0.0000000000,   0.0000000000,  21.3307384906)


Analysis of symmetry for initial positions (statically):
=====================================================================
 Subroutine PRICEL returns:
 Original cell was already a primitive cell.
 

 Routine SETGRP: Setting up the symmetry group for a 
 simple tetragonal supercell.


 Subroutine GETGRP returns: Found  8 space group operations
 (whereof  8 operations were pure point group operations)
 out of a pool of 16 trial point group operations.


The static configuration has the point symmetry C_4v.


Analysis of symmetry for dynamics (positions and initial velocities):
=====================================================================
 Subroutine PRICEL returns:
 Original cell was already a primitive cell.
 

 Routine SETGRP: Setting up the symmetry group for a 
 simple tetragonal supercell.


 Subroutine GETGRP returns: Found  8 space group operations
 (whereof  8 operations were pure point group operations)
 out of a pool of 16 trial point group operations.


The dynamic configuration has the point symmetry C_4v.


 Subroutine INISYM returns: Found  8 space group operations
 (whereof  8 operations are pure point group operations),
 and found     1 'primitive' translations


----------------------------------------------------------------------------------------

                                     Primitive cell                                     

  volume of cell :    1519.8199

  direct lattice vectors                    reciprocal lattice vectors
     8.440984654  0.000000000  0.000000000     0.118469591  0.000000000  0.000000000
     0.000000000  8.440984654  0.000000000     0.000000000  0.118469591  0.000000000
     0.000000000  0.000000000 21.330738491     0.000000000  0.000000000  0.046880702

  length of vectors
     8.440984654  8.440984654 21.330738491     0.118469591  0.118469591  0.046880702

  position of ions in fractional coordinates (direct lattice)
     0.500000000  0.500000000  0.771569172
     0.500000000  0.500000000  0.825332890
     0.000000000  0.750000000  0.351605267
     0.250000000  0.000000000  0.351605267
     0.000000000  0.000000000  0.450535089
     0.250000000  0.750000000  0.450535089
     0.000000000  0.749939268  0.550083239
     0.250060732  0.000000000  0.550083239
     0.000000000  0.000000000  0.648745309
     0.249858327  0.750141673  0.648569547
     0.000000000  0.250000000  0.351605267
     0.250000000  0.500000000  0.351605267
     0.000000000  0.500000000  0.450535089
     0.250000000  0.250000000  0.450535089
     0.000000000  0.250060732  0.550083239
     0.250378379  0.500000000  0.550219524
     0.000000000  0.500000000  0.648615280
     0.249858327  0.249858327  0.648569547
     0.500000000  0.750000000  0.351605267
     0.750000000  0.000000000  0.351605267
     0.500000000  0.000000000  0.450535089
     0.750000000  0.750000000  0.450535089
     0.500000000  0.749621621  0.550219524
     0.749939268  0.000000000  0.550083239
     0.500000000  0.000000000  0.648615280
     0.750141673  0.750141673  0.648569547
     0.500000000  0.250000000  0.351605267
     0.750000000  0.500000000  0.351605267
     0.500000000  0.500000000  0.450535089
     0.750000000  0.250000000  0.450535089
     0.500000000  0.250378379  0.550219524
     0.749621621  0.500000000  0.550219524
     0.500000000  0.500000000  0.650616960
     0.750141673  0.249858327  0.648569547
     0.000000000  0.750000000  0.450535089
     0.250000000  0.000000000  0.450535089
     0.000000000  0.000000000  0.351605267
     0.250000000  0.750000000  0.351605267
     0.000000000  0.750218533  0.650979255
     0.249781467  0.000000000  0.650979255
     0.000000000  0.000000000  0.549809890
     0.249945770  0.750054230  0.549859113
     0.000000000  0.250000000  0.450535089
     0.250000000  0.500000000  0.450535089
     0.000000000  0.500000000  0.351605267
     0.250000000  0.250000000  0.351605267
     0.000000000  0.249781467  0.650979255
     0.248822710  0.500000000  0.650882872
     0.000000000  0.500000000  0.549762666
     0.249945770  0.249945770  0.549859113
     0.500000000  0.750000000  0.450535089
     0.750000000  0.000000000  0.450535089
     0.500000000  0.000000000  0.351605267
     0.750000000  0.750000000  0.351605267
     0.500000000  0.751177290  0.650882872
     0.750218533  0.000000000  0.650979255
     0.500000000  0.000000000  0.549762666
     0.750054230  0.750054230  0.549859113
     0.500000000  0.250000000  0.450535089
     0.750000000  0.500000000  0.450535089
     0.500000000  0.500000000  0.351605267
     0.750000000  0.250000000  0.351605267
     0.500000000  0.248822710  0.650882872
     0.751177290  0.500000000  0.650882872
     0.500000000  0.500000000  0.550231357
     0.750054230  0.249945770  0.549859113

  ion indices of the primitive-cell ions
   primitive index   ion index
                 1           1
                 2           2
                 3           3
                 4           4
                 5           5
                 6           6
                 7           7
                 8           8
                 9           9
                10          10
                11          11
                12          12
                13          13
                14          14
                15          15
                16          16
                17          17
                18          18
                19          19
                20          20
                21          21
                22          22
                23          23
                24          24
                25          25
                26          26
                27          27
                28          28
                29          29
                30          30
                31          31
                32          32
                33          33
                34          34
                35          35
                36          36
                37          37
                38          38
                39          39
                40          40
                41          41
                42          42
                43          43
                44          44
                45          45
                46          46
                47          47
                48          48
                49          49
                50          50
                51          51
                52          52
                53          53
                54          54
                55          55
                56          56
                57          57
                58          58
                59          59
                60          60
                61          61
                62          62
                63          63
                64          64
                65          65
                66          66

----------------------------------------------------------------------------------------



 KPOINTS: pymatgen v2020.8.13 with grid density = 

Automatic generation of k-mesh.
 Grid dimensions read from file:
 generate k-points for:    2    2    1

 Generating k-lattice:

  Cartesian coordinates                     Fractional coordinates (reciprocal lattice)
     0.059234796  0.000000000  0.000000000     0.500000000  0.000000000  0.000000000
     0.000000000  0.059234796  0.000000000     0.000000000  0.500000000  0.000000000
     0.000000000  0.000000000  0.046880702     0.000000000  0.000000000  1.000000000

  Length of vectors
     0.059234796  0.059234796  0.046880702

  Shift w.r.t. Gamma in fractional coordinates (k-lattice)
     0.000000000  0.000000000  0.000000000

 
 Subroutine IBZKPT returns following result:
 ===========================================
 
 Found      3 irreducible k-points:
 
 Following reciprocal coordinates:
            Coordinates               Weight
  0.000000  0.000000  0.000000      1.000000
  0.500000  0.000000  0.000000      2.000000
  0.500000  0.500000  0.000000      1.000000
 
 Following cartesian coordinates:
            Coordinates               Weight
  0.000000  0.000000  0.000000      1.000000
  0.059235  0.000000  0.000000      2.000000
  0.059235  0.059235  0.000000      1.000000
 


--------------------------------------------------------------------------------------------------------




 Dimension of arrays:
   k-points           NKPTS =      3   k-points in BZ     NKDIM =      3   number of bands    NBANDS=    320
   number of dos      NEDOS =    301   number of ions     NIONS =     66
   non local maximal  LDIM  =      5   non local SUM 2l+1 LMDIM =     13
   total plane-waves  NPLWV = 373248
   max r-space proj   IRMAX =      1   max aug-charges    IRDMAX=   5039
   dimension x,y,z NGX =    54 NGY =   54 NGZ =  128
   dimension x,y,z NGXF=   108 NGYF=  108 NGZF=  256
   support grid    NGXF=   108 NGYF=  108 NGZF=  256
   ions per type =               1   1  32  32
   NGX,Y,Z   is equivalent  to a cutoff of  10.64, 10.64,  9.98 a.u.
   NGXF,Y,Z  is equivalent  to a cutoff of  21.27, 21.27, 19.95 a.u.

 SYSTEM =  MgO-rocksalt                            
 POSCAR =   C  O Mg  O                             

 Startparameter for this run:
   NWRITE =      2    write-flag & timer
   PREC   = normal    normal or accurate (medium, high low for compatibility)
   ISTART =      0    job   : 0-new  1-cont  2-samecut
   ICHARG =      2    charge: 1-file 2-atom 10-const
   ISPIN  =      1    spin polarized calculation?
   LNONCOLLINEAR =      F non collinear calculations
   LSORBIT =      F    spin-orbit coupling
   INIWAV =      1    electr: 0-lowe 1-rand  2-diag
   LASPH  =      T    aspherical Exc in radial PAW
 Electronic Relaxation 1
   ENCUT  =  600.0 eV  44.10 Ry    6.64 a.u.  16.86 16.86 42.60*2*pi/ulx,y,z
   ENINI  =  600.0     initial cutoff
   ENAUG  =  758.8 eV  augmentation charge cutoff
   NELM   =    200;   NELMIN=  8; NELMDL= -5     # of ELM steps 
   EDIFF  = 0.1E-05   stopping-criterion for ELM
   LREAL  =      F    real-space projection
   NLSPLINE    = F    spline interpolate recip. space projectors
   LCOMPAT=      F    compatible to vasp.4.4
   GGA_COMPAT  = T    GGA compatible to vasp.4.4-vasp.4.6
   LMAXPAW     = -100 max onsite density
   LMAXMIX     =    2 max onsite mixed and CHGCAR
   VOSKOWN=      0    Vosko Wilk Nusair interpolation
   ROPT   =    0.00000   0.00000   0.00000   0.00000
 Ionic relaxation
   EDIFFG = -.1E-01   stopping-criterion for IOM
   NSW    =      0    number of steps for IOM
   NBLOCK =      1;   KBLOCK =      1    inner block; outer block 
   IBRION =     -1    ionic relax: 0-MD 1-quasi-New 2-CG
   NFREE  =      0    steps in history (QN), initial steepest desc. (CG)
   ISIF   =      2    stress and relaxation
   IWAVPR =     10    prediction:  0-non 1-charg 2-wave 3-comb
   ISYM   =      2    0-nonsym 1-usesym 2-fastsym
   LCORR  =      T    Harris-Foulkes like correction to forces

   POTIM  = 0.5000    time-step for ionic-motion
   TEIN   =    0.0    initial temperature
   TEBEG  =    0.0;   TEEND  =   0.0 temperature during run
   SMASS  =  -3.00    Nose mass-parameter (am)
   estimated Nose-frequenzy (Omega)   =  0.10E-29 period in steps = 0.13E+47 mass=  -0.163E-26a.u.
   SCALEE = 1.0000    scale energy and forces
   NPACO  =    256;   APACO  = 10.0  distance and # of slots for P.C.
   PSTRESS=    0.0 pullay stress

  Mass of Ions in am
   POMASS =  12.01 16.00 24.30 16.00
  Ionic Valenz
   ZVAL   =   4.00  6.00  8.00  6.00
  Atomic Wigner-Seitz radii
   RWIGS  =  -1.00 -1.00 -1.00 -1.00
  virtual crystal weights 
   VCA    =   1.00  1.00  1.00  1.00
   NELECT =     458.0000    total number of electrons
   NUPDOWN=      -1.0000    fix difference up-down

 DOS related values:
   EMIN   =  10.00;   EMAX   =-10.00  energy-range for DOS
   EFERMI =   0.00
   ISMEAR =     0;   SIGMA  =   0.05  broadening in eV -4-tet -1-fermi 0-gaus

 Electronic relaxation 2 (details)
   IALGO  =     58    algorithm
   LDIAG  =      T    sub-space diagonalisation (order eigenvalues)
   LSUBROT=      F    optimize rotation matrix (better conditioning)
   TURBO    =      0    0=normal 1=particle mesh
   IRESTART =      0    0=no restart 2=restart with 2 vectors
   NREBOOT  =      0    no. of reboots
   NMIN     =      0    reboot dimension
   EREF     =   0.00    reference energy to select bands
   IMIX   =      4    mixing-type and parameters
     AMIX     =   0.40;   BMIX     =  1.00
     AMIX_MAG =   1.60;   BMIX_MAG =  1.00
     AMIN     =   0.10
     WC   =   100.;   INIMIX=   1;  MIXPRE=   1;  MAXMIX= -45

 Intra band minimization:
   WEIMIN = 0.0000     energy-eigenvalue tresh-hold
   EBREAK =  0.78E-09  absolut break condition
   DEPER  =   0.30     relativ break condition  

   TIME   =   0.40     timestep for ELM

  volume/ion in A,a.u.               =      23.03       155.40
  Fermi-wavevector in a.u.,A,eV,Ry     =   1.097571  2.074108 16.390423  1.204662
  Thomas-Fermi vector in A             =   2.233933

 Write flags
   LWAVE        =      F    write WAVECAR
   LDOWNSAMPLE  =      F    k-point downsampling of WAVECAR
   LCHARG       =      F    write CHGCAR
   LVTOT        =      F    write LOCPOT, total local potential
   LVHAR        =      F    write LOCPOT, Hartree potential only
   LELF         =      F    write electronic localiz. function (ELF)
   LORBIT       =      0    0 simple, 1 ext, 2 COOP (PROOUT), +10 PAW based schemes


 Dipole corrections
   LMONO  =      F    monopole corrections only (constant potential shift)
   LDIPOL =      T    correct potential (dipole corrections)
   IDIPOL =      3    1-x, 2-y, 3-z, 4-all directions 
   EPSILON=  1.0000000 bulk dielectric constant

 Exchange correlation treatment:
   GGA     =    RE    GGA type
   LEXCH   =    40    internal setting for exchange type
   LIBXC   =     F    Libxc                    
   VOSKOWN =     0    Vosko Wilk Nusair interpolation
   LHFCALC =     F    Hartree Fock is set to
   LHFONE  =     F    Hartree Fock one center treatment
   AEXX    =    0.0000 exact exchange contribution

 Linear response parameters
   LEPSILON=     F    determine dielectric tensor
   LRPA    =     F    only Hartree local field effects (RPA)
   LNABLA  =     F    use nabla operator in PAW spheres
   LVEL    =     F    velocity operator in full k-point grid
   CSHIFT  =0.1000    complex shift for real part using Kramers Kronig
   OMEGAMAX=  -1.0    maximum frequency
   DEG_THRESHOLD= 0.2000000E-02 threshold for treating states as degnerate
   RTIME   =   -0.100 relaxation time in fs
  (WPLASMAI=    0.000 imaginary part of plasma frequency in eV, 0.658/RTIME)
   DFIELD  = 0.0000000 0.0000000 0.0000000 field for delta impulse in time

  Optional k-point grid parameters
   LKPOINTS_OPT  =     F    use optional k-point grid
   KPOINTS_OPT_MODE=     1    mode for optional k-point grid

 Orbital magnetization related:
   ORBITALMAG=     F  switch on orbital magnetization
   LCHIMAG   =     F  perturbation theory with respect to B field
   DQ        =  0.001000  dq finite difference perturbation B field
   LLRAUG    =     F  two centre corrections for induced B field



--------------------------------------------------------------------------------------------------------


 Static calculation
 charge density and potential will be updated during run
 non-spin polarized calculation
 Conjugate gradient for all bands (Freysoldt, et al. PRB 79, 241103 (2009))
 preconditioned conjugated gradient                                        
 perform sub-space diagonalisation
    before iterative eigenvector-optimisation
 modified Broyden-mixing scheme, WC =      100.0
 initial mixing is a Kerker type mixing with AMIX =  0.4000 and BMIX =      1.0000
 Hartree-type preconditioning will be used
 using additional bands           91
 reciprocal scheme for non local part
 use partial core corrections
 no Harris-corrections to forces 
 use gradient corrections 
 use of overlap-Matrix (Vanderbilt PP)
 Gauss-broadening in eV      SIGMA  =   0.05


--------------------------------------------------------------------------------------------------------


  energy-cutoff  :      600.00
  volume of cell :     1519.82
      direct lattice vectors                 reciprocal lattice vectors
     8.440984654  0.000000000  0.000000000     0.118469591  0.000000000  0.000000000
     0.000000000  8.440984654  0.000000000     0.000000000  0.118469591  0.000000000
     0.000000000  0.000000000 21.330738491     0.000000000  0.000000000  0.046880702

  length of vectors
     8.440984654  8.440984654 21.330738491     0.118469591  0.118469591  0.046880702



 k-points in units of 2pi/SCALE and weight: pymatgen v2020.8.13 with grid density = 
   0.00000000  0.00000000  0.00000000       0.250
   0.05923480  0.00000000  0.00000000       0.500
   0.05923480  0.05923480  0.00000000       0.250

 k-points in reciprocal lattice and weights: pymatgen v2020.8.13 with grid density = 
   0.00000000  0.00000000  0.00000000       0.250
   0.50000000  0.00000000  0.00000000       0.500
   0.50000000  0.50000000  0.00000000       0.250

 position of ions in fractional coordinates (direct lattice) 
   0.50000000  0.50000000  0.77156917
   0.50000000  0.50000000  0.82533289
   0.00000000  0.75000000  0.35160527
   0.25000000  0.00000000  0.35160527
   0.00000000  0.00000000  0.45053509
   0.25000000  0.75000000  0.45053509
   0.00000000  0.74993927  0.55008324
   0.25006073  0.00000000  0.55008324
   0.00000000  0.00000000  0.64874531
   0.24985833  0.75014167  0.64856955
   0.00000000  0.25000000  0.35160527
   0.25000000  0.50000000  0.35160527
   0.00000000  0.50000000  0.45053509
   0.25000000  0.25000000  0.45053509
   0.00000000  0.25006073  0.55008324
   0.25037838  0.50000000  0.55021952
   0.00000000  0.50000000  0.64861528
   0.24985833  0.24985833  0.64856955
   0.50000000  0.75000000  0.35160527
   0.75000000  0.00000000  0.35160527
   0.50000000  0.00000000  0.45053509
   0.75000000  0.75000000  0.45053509
   0.50000000  0.74962162  0.55021952
   0.74993927  0.00000000  0.55008324
   0.50000000  0.00000000  0.64861528
   0.75014167  0.75014167  0.64856955
   0.50000000  0.25000000  0.35160527
   0.75000000  0.50000000  0.35160527
   0.50000000  0.50000000  0.45053509
   0.75000000  0.25000000  0.45053509
   0.50000000  0.25037838  0.55021952
   0.74962162  0.50000000  0.55021952
   0.50000000  0.50000000  0.65061696
   0.75014167  0.24985833  0.64856955
   0.00000000  0.75000000  0.45053509
   0.25000000  0.00000000  0.45053509
   0.00000000  0.00000000  0.35160527
   0.25000000  0.75000000  0.35160527
   0.00000000  0.75021853  0.65097926
   0.24978147  0.00000000  0.65097926
   0.00000000  0.00000000  0.54980989
   0.24994577  0.75005423  0.54985911
   0.00000000  0.25000000  0.45053509
   0.25000000  0.50000000  0.45053509
   0.00000000  0.50000000  0.35160527
   0.25000000  0.25000000  0.35160527
   0.00000000  0.24978147  0.65097926
   0.24882271  0.50000000  0.65088287
   0.00000000  0.50000000  0.54976267
   0.24994577  0.24994577  0.54985911
   0.50000000  0.75000000  0.45053509
   0.75000000  0.00000000  0.45053509
   0.50000000  0.00000000  0.35160527
   0.75000000  0.75000000  0.35160527
   0.50000000  0.75117729  0.65088287
   0.75021853  0.00000000  0.65097926
   0.50000000  0.00000000  0.54976267
   0.75005423  0.75005423  0.54985911
   0.50000000  0.25000000  0.45053509
   0.75000000  0.50000000  0.45053509
   0.50000000  0.50000000  0.35160527
   0.75000000  0.25000000  0.35160527
   0.50000000  0.24882271  0.65088287
   0.75117729  0.50000000  0.65088287
   0.50000000  0.50000000  0.55023136
   0.75005423  0.24994577  0.54985911

 position of ions in cartesian coordinates  (Angst):
   4.22049233  4.22049233 16.45814023
   4.22049233  4.22049233 17.60496005
   0.00000000  6.33073849  7.50000000
   2.11024616  0.00000000  7.50000000
   0.00000000  0.00000000  9.61024616
   2.11024616  6.33073849  9.61024616
   0.00000000  6.33022585 11.73368172
   2.11075880  0.00000000 11.73368172
   0.00000000  0.00000000 13.83821654
   2.10905031  6.33193435 13.83446740
   0.00000000  2.11024616  7.50000000
   2.11024616  4.22049233  7.50000000
   0.00000000  4.22049233  9.61024616
   2.11024616  2.11024616  9.61024616
   0.00000000  2.11075880 11.73368172
   2.11344006  4.22049233 11.73658877
   0.00000000  4.22049233 13.83544293
   2.10905031  2.10905031 13.83446740
   4.22049233  6.33073849  7.50000000
   6.33073849  0.00000000  7.50000000
   4.22049233  0.00000000  9.61024616
   6.33073849  6.33073849  9.61024616
   4.22049233  6.32754460 11.73658877
   6.33022585  0.00000000 11.73368172
   4.22049233  0.00000000 13.83544293
   6.33193435  6.33193435 13.83446740
   4.22049233  2.11024616  7.50000000
   6.33073849  4.22049233  7.50000000
   4.22049233  4.22049233  9.61024616
   6.33073849  2.11024616  9.61024616
   4.22049233  2.11344006 11.73658877
   6.32754460  4.22049233 11.73658877
   4.22049233  4.22049233 13.87814023
   6.33193435  2.10905031 13.83446740
   0.00000000  6.33073849  9.61024616
   2.11024616  0.00000000  9.61024616
   0.00000000  0.00000000  7.50000000
   2.11024616  6.33073849  7.50000000
   0.00000000  6.33258312 13.88586825
   2.10840153  0.00000000 13.88586825
   0.00000000  0.00000000 11.72785099
   2.10978841  6.33119624 11.72890095
   0.00000000  2.11024616  9.61024616
   2.11024616  4.22049233  9.61024616
   0.00000000  4.22049233  7.50000000
   2.11024616  2.11024616  7.50000000
   0.00000000  2.10840153 13.88586825
   2.10030867  4.22049233 13.88381232
   0.00000000  4.22049233 11.72684365
   2.10978841  2.10978841 11.72890095
   4.22049233  6.33073849  9.61024616
   6.33073849  0.00000000  9.61024616
   4.22049233  0.00000000  7.50000000
   6.33073849  6.33073849  7.50000000
   4.22049233  6.34067598 13.88381232
   6.33258312  0.00000000 13.88586825
   4.22049233  0.00000000 11.72684365
   6.33119624  6.33119624 11.72890095
   4.22049233  2.11024616  9.61024616
   6.33073849  4.22049233  9.61024616
   4.22049233  4.22049233  7.50000000
   6.33073849  2.11024616  7.50000000
   4.22049233  2.10030867 13.88381232
   6.34067598  4.22049233 13.88381232
   4.22049233  4.22049233 11.73684118
   6.33119624  2.10978841 11.72890095



--------------------------------------------------------------------------------------------------------


 k-point   1 :   0.0000 0.0000 0.0000  plane waves:   50745
 k-point   2 :   0.5000 0.0000 0.0000  plane waves:   50798
 k-point   3 :   0.5000 0.5000 0.0000  plane waves:   50752

 maximum and minimum number of plane-waves per node :     12720    12632

 maximum number of plane-waves:     50798
 maximum index in each direction: 
   IXMAX=   16   IYMAX=   16   IZMAX=   42
   IXMIN=  -17   IYMIN=  -17   IZMIN=  -42


 parallel 3D FFT for wavefunctions:
    minimum data exchange during FFTs selected (reduces bandwidth)
 parallel 3D FFT for charge:
    minimum data exchange during FFTs selected (reduces bandwidth)


 total amount of memory used by VASP MPI-rank0    78528. kBytes
=======================================================================

   base      :      30000. kBytes
   nonl-proj :      29343. kBytes
   fftplans  :       3857. kBytes
   grid      :       5885. kBytes
   one-center:        137. kBytes
   wavefun   :       9306. kBytes

     INWAV:  cpu time      0.0001: real time      0.0004
 Broyden mixing: mesh for mixing (old mesh)
   NGX = 33   NGY = 33   NGZ = 85
  (NGX  =108   NGY  =108   NGZ  =256)
  gives a total of  92565 points

 initial charge density was supplied:
 charge density of overlapping atoms calculated
 number of electron     458.0000000 magnetization 
 keeping initial charge density in first step


--------------------------------------------------------------------------------------------------------


 Maximum index for augmentation-charges          334 (set IRDMAX)


--------------------------------------------------------------------------------------------------------


 First call to EWALD:  gamma=   0.154
 Maximum number of real-space cells 4x 4x 2
 Maximum number of reciprocal cells 2x 2x 5

    FEWALD:  cpu time      0.0077: real time      0.0077


--------------------------------------- Iteration      1(   1)  ---------------------------------------


    POTLOK:  cpu time      0.0418: real time      0.0429
    SETDIJ:  cpu time      0.1239: real time      0.1239
    TRIAL :  cpu time      5.4152: real time      5.5064
    CORREC:  cpu time      0.0015: real time      0.0015
    --------------------------------------------
      LOOP:  cpu time      5.5840: real time      5.7484

 eigenvalue-minimisations  :  2304
 total energy-change (2. order) : 0.4173059E+04  (-0.3066445E+05)
 number of electron     458.0000000 magnetization 
 augmentation part      458.0000000 magnetization 

 DIPCOR: dipole corrections for dipol
 direction  3 min pos     1,
 dipolmoment           0.000000      0.000000     -0.000352 electrons x Angstroem
 Tr[quadrupol]     -6318.707966

 energy correction for charged system         0.000000 eV
 dipol+quadrupol energy correction           -0.000000 eV
 added-field ion interaction          0.002911 eV  (added to PSCEN)


 Free energy of the ion-electron system (eV)
  ---------------------------------------------------
  alpha Z        PSCENC =       907.96701471
  Ewald energy   TEWEN  =    136826.47027779
  -Hartree energ DENC   =   -172926.08885425
  -exchange      EXHF   =         0.00000000
  -V(xc)+E(xc)   XCENC  =      1766.49164653
  PAW double counting   =     32340.89285313   -36127.75492224
  entropy T*S    EENTRO =        -0.02303506
  eigenvalues    EBANDS =     -6811.47096956
  atomic energy  EATOM  =     48196.57542979
  ---------------------------------------------------
  free energy    TOTEN  =      4173.05944083 eV

  energy without entropy =     4173.08247588  energy(sigma->0) =     4173.07095836


--------------------------------------------------------------------------------------------------------




--------------------------------------- Iteration      1(   2)  ---------------------------------------


    TRIAL :  cpu time      2.2615: real time      2.2620
    CORREC:  cpu time      0.0005: real time      0.0005
    --------------------------------------------
      LOOP:  cpu time      2.2669: real time      2.2768

 eigenvalue-minimisations  :  2304
 total energy-change (2. order) :-0.4288453E+04  (-0.4214535E+04)
 number of electron     458.0000000 magnetization 
 augmentation part      458.0000000 magnetization 

 DIPCOR: dipole corrections for dipol
 direction  3 min pos     1,
 dipolmoment           0.000000      0.000000     -0.000352 electrons x Angstroem
 Tr[quadrupol]     -6318.707966

 energy correction for charged system         0.000000 eV
 dipol+quadrupol energy correction           -0.000000 eV
 added-field ion interaction          0.002911 eV  (added to PSCEN)


 Free energy of the ion-electron system (eV)
  ---------------------------------------------------
  alpha Z        PSCENC =       907.96701471
  Ewald energy   TEWEN  =    136826.47027779
  -Hartree energ DENC   =   -172926.08885425
  -exchange      EXHF   =         0.00000000
  -V(xc)+E(xc)   XCENC  =      1766.49164653
  PAW double counting   =     32340.89285313   -36127.75492224
  entropy T*S    EENTRO =        -0.00000000
  eigenvalues    EBANDS =    -11099.94743699
  atomic energy  EATOM  =     48196.57542979
  ---------------------------------------------------
  free energy    TOTEN  =      -115.39399154 eV

  energy without entropy =     -115.39399154  energy(sigma->0) =     -115.39399154


--------------------------------------------------------------------------------------------------------




--------------------------------------- Iteration      1(   3)  ---------------------------------------


    TRIAL :  cpu time      2.3793: real time      2.3796
    CORREC:  cpu time      0.0003: real time      0.0003
    --------------------------------------------
      LOOP:  cpu time      2.3849: real time      2.3942

 eigenvalue-minimisations  :  2304
 total energy-change (2. order) :-0.3107481E+03  (-0.3087021E+03)
 number of electron     458.0000000 magnetization 
 augmentation part      458.0000000 magnetization 

 DIPCOR: dipole corrections for dipol
 direction  3 min pos     1,
 dipolmoment           0.000000      0.000000     -0.000352 electrons x Angstroem
 Tr[quadrupol]     -6318.707966

 energy correction for charged system         0.000000 eV
 dipol+quadrupol energy correction           -0.000000 eV
 added-field ion interaction          0.002911 eV  (added to PSCEN)


 Free energy of the ion-electron system (eV)
  ---------------------------------------------------
  alpha Z        PSCENC =       907.96701471
  Ewald energy   TEWEN  =    136826.47027779
  -Hartree energ DENC   =   -172926.08885425
  -exchange      EXHF   =         0.00000000
  -V(xc)+E(xc)   XCENC  =      1766.49164653
  PAW double counting   =     32340.89285313   -36127.75492224
  entropy T*S    EENTRO =        -0.00000000
  eigenvalues    EBANDS =    -11410.69553782
  atomic energy  EATOM  =     48196.57542979
  ---------------------------------------------------
  free energy    TOTEN  =      -426.14209238 eV

  energy without entropy =     -426.14209238  energy(sigma->0) =     -426.14209238


--------------------------------------------------------------------------------------------------------




--------------------------------------- Iteration      1(   4)  ---------------------------------------


    TRIAL :  cpu time      2.3795: real time      2.3801
    CORREC:  cpu time      0.0003: real time      0.0003
    --------------------------------------------
      LOOP:  cpu time      2.3939: real time      2.3947

 eigenvalue-minimisations  :  2368
 total energy-change (2. order) :-0.5967086E+01  (-0.5960165E+01)
 number of electron     458.0000000 magnetization 
 augmentation part      458.0000000 magnetization 

 DIPCOR: dipole corrections for dipol
 direction  3 min pos     1,
 dipolmoment           0.000000      0.000000     -0.000352 electrons x Angstroem
 Tr[quadrupol]     -6318.707966

 energy correction for charged system         0.000000 eV
 dipol+quadrupol energy correction           -0.000000 eV
 added-field ion interaction          0.002911 eV  (added to PSCEN)


 Free energy of the ion-electron system (eV)
  ---------------------------------------------------
  alpha Z        PSCENC =       907.96701471
  Ewald energy   TEWEN  =    136826.47027779
  -Hartree energ DENC   =   -172926.08885425
  -exchange      EXHF   =         0.00000000
  -V(xc)+E(xc)   XCENC  =      1766.49164653
  PAW double counting   =     32340.89285313   -36127.75492224
  entropy T*S    EENTRO =        -0.00000000
  eigenvalues    EBANDS =    -11416.66262395
  atomic energy  EATOM  =     48196.57542979
  ---------------------------------------------------
  free energy    TOTEN  =      -432.10917850 eV

  energy without entropy =     -432.10917850  energy(sigma->0) =     -432.10917850


--------------------------------------------------------------------------------------------------------




--------------------------------------- Iteration      1(   5)  ---------------------------------------


    TRIAL :  cpu time      2.6315: real time      2.6324
    CORREC:  cpu time      0.0005: real time      0.0005
    CHARGE:  cpu time      0.0739: real time      0.0741
    --------------------------------------------
      LOOP:  cpu time      2.7126: real time      2.7217

 eigenvalue-minimisations  :  2368
 total energy-change (2. order) :-0.7701839E-01  (-0.7701560E-01)
 number of electron     457.9999375 magnetization 
 augmentation part      159.7022335 magnetization 

 DIPCOR: dipole corrections for dipol
 direction  3 min pos     1,
 dipolmoment           0.000000      0.000000     -0.000352 electrons x Angstroem
 Tr[quadrupol]     -6318.707966

 energy correction for charged system         0.000000 eV
 dipol+quadrupol energy correction           -0.000000 eV
 added-field ion interaction          0.002911 eV  (added to PSCEN)


 Free energy of the ion-electron system (eV)
  ---------------------------------------------------
  alpha Z        PSCENC =       907.96701471
  Ewald energy   TEWEN  =    136826.47027779
  -Hartree energ DENC   =   -172926.08885425
  -exchange      EXHF   =         0.00000000
  -V(xc)+E(xc)   XCENC  =      1766.49164653
  PAW double counting   =     32340.89285313   -36127.75492224
  entropy T*S    EENTRO =        -0.00000000
  eigenvalues    EBANDS =    -11416.73964234
  atomic energy  EATOM  =     48196.57542979
  ---------------------------------------------------
  free energy    TOTEN  =      -432.18619689 eV

  energy without entropy =     -432.18619689  energy(sigma->0) =     -432.18619689


--------------------------------------------------------------------------------------------------------




--------------------------------------- Iteration      1(   6)  ---------------------------------------


    POTLOK:  cpu time      0.0354: real time      0.0354
    SETDIJ:  cpu time      0.1829: real time      0.1829
    TRIAL :  cpu time      0.6842: real time      0.6857
    CORREC:  cpu time      0.5245: real time      0.5248
    CHARGE:  cpu time      0.0538: real time      0.0538
    --------------------------------------------
      LOOP:  cpu time      1.4946: real time      1.4966

 eigenvalue-minimisations  :     0
 total energy-change (2. order) : 0.1727700E+03  (-0.9558620E+02)
 number of electron     457.9999267 magnetization 
 augmentation part      156.7872493 magnetization 

 DIPCOR: dipole corrections for dipol
 direction  3 min pos     1,
 dipolmoment           0.000000      0.000000      0.180681 electrons x Angstroem
 Tr[quadrupol]     -6356.073170

 energy correction for charged system         0.000000 eV
 dipol+quadrupol energy correction           -0.001943 eV
 added-field ion interaction         -1.492905 eV  (added to PSCEN)


 Free energy of the ion-electron system (eV)
  ---------------------------------------------------
  alpha Z        PSCENC =       904.20239007
  Ewald energy   TEWEN  =    136826.47027779
  -Hartree energ DENC   =   -176808.13991249
  -exchange      EXHF   =         0.00000000
  -V(xc)+E(xc)   XCENC  =      1890.19011074
  PAW double counting   =     37143.24451764   -40889.34333936
  entropy T*S    EENTRO =        -0.00000000
  eigenvalues    EBANDS =     -7522.61562548
  atomic energy  EATOM  =     48196.57542979
  ---------------------------------------------------
  free energy    TOTEN  =      -259.41615132 eV

  energy without entropy =     -259.41615132  energy(sigma->0) =     -259.41615132


--------------------------------------------------------------------------------------------------------




--------------------------------------- Iteration      1(   7)  ---------------------------------------


    POTLOK:  cpu time      0.0296: real time      0.0296
    SETDIJ:  cpu time      0.1861: real time      0.1861
    TRIAL :  cpu time      0.5989: real time      0.5991
    CORREC:  cpu time      0.5104: real time      0.5104
    CHARGE:  cpu time      0.0549: real time      0.0549
    --------------------------------------------
      LOOP:  cpu time      1.3851: real time      1.3946

 eigenvalue-minimisations  :     0
 total energy-change (2. order) :-0.9595953E+02  (-0.6721053E+01)
 number of electron     457.9999258 magnetization 
 augmentation part      154.9309884 magnetization 

 DIPCOR: dipole corrections for dipol
 direction  3 min pos     1,
 dipolmoment           0.000000      0.000000      0.159063 electrons x Angstroem
 Tr[quadrupol]     -6361.128260

 energy correction for charged system         0.000000 eV
 dipol+quadrupol energy correction           -0.001506 eV
 added-field ion interaction         -1.314277 eV  (added to PSCEN)


 Free energy of the ion-electron system (eV)
  ---------------------------------------------------
  alpha Z        PSCENC =       906.20426051
  Ewald energy   TEWEN  =    136826.47027779
  -Hartree energ DENC   =   -174973.43705897
  -exchange      EXHF   =         0.00000000
  -V(xc)+E(xc)   XCENC  =      1823.42946617
  PAW double counting   =     36032.15415484   -39847.84045857
  entropy T*S    EENTRO =        -0.00000000
  eigenvalues    EBANDS =     -9318.93174855
  atomic energy  EATOM  =     48196.57542979
  ---------------------------------------------------
  free energy    TOTEN  =      -355.37567699 eV

  energy without entropy =     -355.37567699  energy(sigma->0) =     -355.37567699


--------------------------------------------------------------------------------------------------------




--------------------------------------- Iteration      1(   8)  ---------------------------------------


    POTLOK:  cpu time      0.0292: real time      0.0292
    SETDIJ:  cpu time      0.1870: real time      0.1870
    TRIAL :  cpu time      0.6077: real time      0.6079
    CORREC:  cpu time      0.5136: real time      0.5137
    CHARGE:  cpu time      0.0540: real time      0.0540
    --------------------------------------------
      LOOP:  cpu time      1.4055: real time      1.4061

 eigenvalue-minimisations  :     0
 total energy-change (2. order) :-0.6736027E+01  (-0.4166445E+01)
 number of electron     457.9999241 magnetization 
 augmentation part      155.0372701 magnetization 

 DIPCOR: dipole corrections for dipol
 direction  3 min pos     1,
 dipolmoment           0.000000      0.000000      0.100175 electrons x Angstroem
 Tr[quadrupol]     -6359.502761

 energy correction for charged system         0.000000 eV
 dipol+quadrupol energy correction           -0.000597 eV
 added-field ion interaction         -0.827709 eV  (added to PSCEN)


 Free energy of the ion-electron system (eV)
  ---------------------------------------------------
  alpha Z        PSCENC =       906.79730766
  Ewald energy   TEWEN  =    136826.47027779
  -Hartree energ DENC   =   -174865.70185167
  -exchange      EXHF   =         0.00000000
  -V(xc)+E(xc)   XCENC  =      1814.03514105
  PAW double counting   =     35920.03460867   -39666.35272795
  entropy T*S    EENTRO =        -0.00000000
  eigenvalues    EBANDS =     -9493.96988949
  atomic energy  EATOM  =     48196.57542979
  ---------------------------------------------------
  free energy    TOTEN  =      -362.11170417 eV

  energy without entropy =     -362.11170417  energy(sigma->0) =     -362.11170417


--------------------------------------------------------------------------------------------------------




--------------------------------------- Iteration      1(   9)  ---------------------------------------


    POTLOK:  cpu time      0.0289: real time      0.0289
    SETDIJ:  cpu time      0.1866: real time      0.1866
    TRIAL :  cpu time      0.6144: real time      0.6144
    CORREC:  cpu time      0.5113: real time      0.5115
    CHARGE:  cpu time      0.0533: real time      0.0533
    --------------------------------------------
      LOOP:  cpu time      1.4013: real time      1.4091

 eigenvalue-minimisations  :     0
 total energy-change (2. order) :-0.4086924E+01  (-0.1707502E+01)
 number of electron     457.9999240 magnetization 
 augmentation part      155.0558141 magnetization 

 DIPCOR: dipole corrections for dipol
 direction  3 min pos     1,
 dipolmoment           0.000000      0.000000      0.119141 electrons x Angstroem
 Tr[quadrupol]     -6352.533309

 energy correction for charged system         0.000000 eV
 dipol+quadrupol energy correction           -0.000845 eV
 added-field ion interaction         -0.984421 eV  (added to PSCEN)


 Free energy of the ion-electron system (eV)
  ---------------------------------------------------
  alpha Z        PSCENC =       907.29437675
  Ewald energy   TEWEN  =    136826.47027779
  -Hartree energ DENC   =   -174738.68056888
  -exchange      EXHF   =         0.00000000
  -V(xc)+E(xc)   XCENC  =      1813.49267622
  PAW double counting   =     35834.89619381   -39616.14416891
  entropy T*S    EENTRO =        -0.00000000
  eigenvalues    EBANDS =     -9590.10284461
  atomic energy  EATOM  =     48196.57542979
  ---------------------------------------------------
  free energy    TOTEN  =      -366.19862804 eV

  energy without entropy =     -366.19862804  energy(sigma->0) =     -366.19862804


--------------------------------------------------------------------------------------------------------




--------------------------------------- Iteration      1(  10)  ---------------------------------------


    POTLOK:  cpu time      0.0290: real time      0.0290
    SETDIJ:  cpu time      0.1865: real time      0.1866
    TRIAL :  cpu time      0.6166: real time      0.6169
    CORREC:  cpu time      0.5117: real time      0.5117
    CHARGE:  cpu time      0.0549: real time      0.0549
    --------------------------------------------
      LOOP:  cpu time      1.4129: real time      1.4134

 eigenvalue-minimisations  :     0
 total energy-change (2. order) :-0.1719806E+01  (-0.5885273E+00)
 number of electron     457.9999246 magnetization 
 augmentation part      155.0150484 magnetization 

 DIPCOR: dipole corrections for dipol
 direction  3 min pos     1,
 dipolmoment           0.000000      0.000000      0.149534 electrons x Angstroem
 Tr[quadrupol]     -6351.119150

 energy correction for charged system         0.000000 eV
 dipol+quadrupol energy correction           -0.001331 eV
 added-field ion interaction         -1.235544 eV  (added to PSCEN)


 Free energy of the ion-electron system (eV)
  ---------------------------------------------------
  alpha Z        PSCENC =       907.02389448
  Ewald energy   TEWEN  =    136826.47027779
  -Hartree energ DENC   =   -174561.87481862
  -exchange      EXHF   =         0.00000000
  -V(xc)+E(xc)   XCENC  =      1811.79034059
  PAW double counting   =     35720.68123852   -39510.16885346
  entropy T*S    EENTRO =        -0.00000000
  eigenvalues    EBANDS =     -9758.41594291
  atomic energy  EATOM  =     48196.57542979
  ---------------------------------------------------
  free energy    TOTEN  =      -367.91843382 eV

  energy without entropy =     -367.91843382  energy(sigma->0) =     -367.91843382


--------------------------------------------------------------------------------------------------------




--------------------------------------- Iteration      1(  11)  ---------------------------------------


    POTLOK:  cpu time      0.0289: real time      0.0289
    SETDIJ:  cpu time      0.1861: real time      0.1863
    TRIAL :  cpu time      0.5987: real time      0.5987
    CORREC:  cpu time      0.5113: real time      0.5115
    CHARGE:  cpu time      0.0535: real time      0.0538
    --------------------------------------------
      LOOP:  cpu time      1.3842: real time      1.3936

 eigenvalue-minimisations  :     0
 total energy-change (2. order) :-0.5898762E+00  (-0.2109850E+00)
 number of electron     457.9999251 magnetization 
 augmentation part      155.1067039 magnetization 

 DIPCOR: dipole corrections for dipol
 direction  3 min pos     1,
 dipolmoment           0.000000      0.000000      0.140663 electrons x Angstroem
 Tr[quadrupol]     -6351.852112

 energy correction for charged system         0.000000 eV
 dipol+quadrupol energy correction           -0.001178 eV
 added-field ion interaction         -1.162246 eV  (added to PSCEN)


 Free energy of the ion-electron system (eV)
  ---------------------------------------------------
  alpha Z        PSCENC =       906.76701715
  Ewald energy   TEWEN  =    136826.47027779
  -Hartree energ DENC   =   -174493.37171407
  -exchange      EXHF   =         0.00000000
  -V(xc)+E(xc)   XCENC  =      1810.76810547
  PAW double counting   =     35658.91566897   -39440.62109286
  entropy T*S    EENTRO =        -0.00000000
  eigenvalues    EBANDS =     -9834.01200224
  atomic energy  EATOM  =     48196.57542979
  ---------------------------------------------------
  free energy    TOTEN  =      -368.50831001 eV

  energy without entropy =     -368.50831001  energy(sigma->0) =     -368.50831001


--------------------------------------------------------------------------------------------------------




--------------------------------------- Iteration      1(  12)  ---------------------------------------


    POTLOK:  cpu time      0.0288: real time      0.0288
    SETDIJ:  cpu time      0.1865: real time      0.1865
    TRIAL :  cpu time      0.5995: real time      0.5997
    CORREC:  cpu time      0.5104: real time      0.5105
    CHARGE:  cpu time      0.0542: real time      0.0542
    --------------------------------------------
      LOOP:  cpu time      1.3848: real time      1.3944

 eigenvalue-minimisations  :     0
 total energy-change (2. order) :-0.2109769E+00  (-0.7223068E-01)
 number of electron     457.9999252 magnetization 
 augmentation part      155.2083401 magnetization 

 DIPCOR: dipole corrections for dipol
 direction  3 min pos     1,
 dipolmoment           0.000000      0.000000      0.130431 electrons x Angstroem
 Tr[quadrupol]     -6352.533713

 energy correction for charged system         0.000000 eV
 dipol+quadrupol energy correction           -0.001013 eV
 added-field ion interaction         -1.077707 eV  (added to PSCEN)


 Free energy of the ion-electron system (eV)
  ---------------------------------------------------
  alpha Z        PSCENC =       906.80015730
  Ewald energy   TEWEN  =    136826.47027779
  -Hartree energ DENC   =   -174514.94971455
  -exchange      EXHF   =         0.00000000
  -V(xc)+E(xc)   XCENC  =      1811.00710431
  PAW double counting   =     35645.40321974   -39425.29377998
  entropy T*S    EENTRO =        -0.00000000
  eigenvalues    EBANDS =     -9814.73198128
  atomic energy  EATOM  =     48196.57542979
  ---------------------------------------------------
  free energy    TOTEN  =      -368.71928689 eV

  energy without entropy =     -368.71928689  energy(sigma->0) =     -368.71928689


--------------------------------------------------------------------------------------------------------




--------------------------------------- Iteration      1(  13)  ---------------------------------------


    POTLOK:  cpu time      0.0290: real time      0.0290
    SETDIJ:  cpu time      0.1871: real time      0.1871
    TRIAL :  cpu time      0.5978: real time      0.5980
    CORREC:  cpu time      0.5104: real time      0.5105
    CHARGE:  cpu time      0.0539: real time      0.0539
    --------------------------------------------
      LOOP:  cpu time      1.3845: real time      1.3932

 eigenvalue-minimisations  :     0
 total energy-change (2. order) :-0.7225374E-01  (-0.3151404E-01)
 number of electron     457.9999252 magnetization 
 augmentation part      155.2427436 magnetization 

 DIPCOR: dipole corrections for dipol
 direction  3 min pos     1,
 dipolmoment           0.000000      0.000000      0.125789 electrons x Angstroem
 Tr[quadrupol]     -6352.941799

 energy correction for charged system         0.000000 eV
 dipol+quadrupol energy correction           -0.000942 eV
 added-field ion interaction         -1.039353 eV  (added to PSCEN)


 Free energy of the ion-electron system (eV)
  ---------------------------------------------------
  alpha Z        PSCENC =       906.88925189
  Ewald energy   TEWEN  =    136826.47027779
  -Hartree energ DENC   =   -174543.70537489
  -exchange      EXHF   =         0.00000000
  -V(xc)+E(xc)   XCENC  =      1811.30801009
  PAW double counting   =     35645.36375803   -39428.08803623
  entropy T*S    EENTRO =        -0.00000000
  eigenvalues    EBANDS =     -9783.60485709
  atomic energy  EATOM  =     48196.57542979
  ---------------------------------------------------
  free energy    TOTEN  =      -368.79154063 eV

  energy without entropy =     -368.79154063  energy(sigma->0) =     -368.79154063


--------------------------------------------------------------------------------------------------------




--------------------------------------- Iteration      1(  14)  ---------------------------------------


    POTLOK:  cpu time      0.0289: real time      0.0289
    SETDIJ:  cpu time      0.1863: real time      0.1863
    TRIAL :  cpu time      0.6143: real time      0.6143
    CORREC:  cpu time      0.5101: real time      0.5104
    CHARGE:  cpu time      0.0533: real time      0.0533
    --------------------------------------------
      LOOP:  cpu time      1.3982: real time      1.4078

 eigenvalue-minimisations  :     0
 total energy-change (2. order) :-0.3154537E-01  (-0.1480984E-01)
 number of electron     457.9999252 magnetization 
 augmentation part      155.2282944 magnetization 

 DIPCOR: dipole corrections for dipol
 direction  3 min pos     1,
 dipolmoment           0.000000      0.000000      0.124605 electrons x Angstroem
 Tr[quadrupol]     -6353.262970

 energy correction for charged system         0.000000 eV
 dipol+quadrupol energy correction           -0.000924 eV
 added-field ion interaction         -1.029567 eV  (added to PSCEN)


 Free energy of the ion-electron system (eV)
  ---------------------------------------------------
  alpha Z        PSCENC =       906.92942008
  Ewald energy   TEWEN  =    136826.47027779
  -Hartree energ DENC   =   -174556.94702775
  -exchange      EXHF   =         0.00000000
  -V(xc)+E(xc)   XCENC  =      1811.32083531
  PAW double counting   =     35645.89152089   -39430.16134764
  entropy T*S    EENTRO =        -0.00000000
  eigenvalues    EBANDS =     -9768.90219447
  atomic energy  EATOM  =     48196.57542979
  ---------------------------------------------------
  free energy    TOTEN  =      -368.82308601 eV

  energy without entropy =     -368.82308601  energy(sigma->0) =     -368.82308601


--------------------------------------------------------------------------------------------------------




--------------------------------------- Iteration      1(  15)  ---------------------------------------


    POTLOK:  cpu time      0.0297: real time      0.0297
    SETDIJ:  cpu time      0.1856: real time      0.1856
    TRIAL :  cpu time      0.5993: real time      0.5996
    CORREC:  cpu time      0.5115: real time      0.5115
[...]
    273       7.5833      0.00000
    274       7.5833      0.00000
    275       7.6816      0.00000
    276       7.7752      0.00000
    277       8.0079      0.00000
    278       8.0080      0.00000
    279       8.0153      0.00000
    280       8.1687      0.00000
    281       8.1689      0.00000
    282       8.1753      0.00000
    283       8.1796      0.00000
    284       8.1921      0.00000
    285       8.1964      0.00000
    286       8.2020      0.00000
    287       8.2020      0.00000
    288       8.4650      0.00000
    289       8.4653      0.00000
    290       8.4669      0.00000
    291       8.6235      0.00000
    292       8.6293      0.00000
    293       8.6626      0.00000
    294       8.6836      0.00000
    295       8.7355      0.00000
    296       8.7472      0.00000
    297       8.7595      0.00000
    298       8.7714      0.00000
    299       8.7751      0.00000
    300       8.9832      0.00000
    301       9.0328      0.00000
    302       9.0548      0.00000
    303       9.0698      0.00000
    304       9.0896      0.00000
    305       9.3515      0.00000
    306       9.4620      0.00000
    307       9.5200      0.00000
    308       9.5664      0.00000
    309       9.6715      0.00000
    310       9.6725      0.00000
    311       9.6761      0.00000
    312       9.9006      0.00000
    313       9.9606      0.00000
    314      10.0433      0.00000
    315      10.0531      0.00000
    316      10.0576      0.00000
    317      10.4466      0.00000
    318      10.4939      0.00000
    319      10.5921      0.00000
    320      10.6005      0.00000


--------------------------------------------------------------------------------------------------------


 soft charge-density along one line, spin component           1
         0         1         2         3         4         5         6         7         8         9
 total charge-density along one line

 pseudopotential strength for first ion, spin component:           1
 10.254  13.638   0.000   0.037   0.000  -0.000  -0.106  -0.000
 13.638  18.137   0.000   0.049   0.000  -0.000  -0.141  -0.000
  0.000   0.000  -4.281  -0.000  -0.000   8.370   0.000   0.000
  0.037   0.049  -0.000  -4.338   0.000   0.000   8.465  -0.000
  0.000   0.000  -0.000   0.000  -4.281   0.000  -0.000   8.370
 -0.000  -0.000   8.370   0.000   0.000 -18.496  -0.000  -0.000
 -0.106  -0.141   0.000   8.465  -0.000  -0.000 -18.651   0.000
 -0.000  -0.000   0.000  -0.000   8.370  -0.000   0.000 -18.496
 total augmentation occupancy for first ion, spin component:           1
  7.770  -3.548  -0.000   2.038   0.000   0.000   0.382   0.000
 -3.548   1.985   0.000  -1.560   0.000   0.000  -0.234   0.000
 -0.000   0.000   0.839   0.000   0.000   0.063   0.000  -0.000
  2.038  -1.560   0.000   2.237   0.000   0.000   0.215   0.000
  0.000   0.000   0.000   0.000   0.839   0.000   0.000   0.063
  0.000   0.000   0.063   0.000   0.000   0.005   0.000   0.000
  0.382  -0.234   0.000   0.215   0.000   0.000   0.029  -0.000
  0.000   0.000  -0.000   0.000   0.063   0.000  -0.000   0.005


------------------------ aborting loop because EDIFF is reached ----------------------------------------


    FORLOC:  cpu time      0.0042: real time      0.0042
    FORNL :  cpu time      0.4352: real time      0.4355
    STRESS:  cpu time      1.4972: real time      1.4978
    FORCOR:  cpu time      0.0266: real time      0.0267
    OFIELD:  cpu time      0.0001: real time      0.0001
    FORVDW:  cpu time      7.9252: real time      7.9563

  FORCE on cell =-STRESS in cart. coord.  units (eV):
  Direction    XX          YY          ZZ          XY          YZ          ZX
  --------------------------------------------------------------------------------------
  Alpha Z   907.96410   907.96410   907.96410
  Ewald  157329.00052157329.00052************     0.00000     0.00000    -0.00000
  Hartree167754.93577167754.93577************    -0.00000    -0.00000    -0.00000
  E(xc)   -2509.85219 -2509.85219 -2516.37460     0.00000     0.00000    -0.00000
  Local  ************************334667.32280    -0.00000    -0.00000    -0.00000
  n-local -2812.77998 -2813.56269 -2844.64105    -0.00000    -0.00000     0.00000
  augment  1052.76610  1052.76610  1042.63840     0.00000     0.00000    -0.00000
  Kinetic  7500.41402  7502.92500  7523.27660     0.00002     0.00000    -0.00001
  Fock        0.00000     0.00000     0.00000     0.00000     0.00000     0.00000
  vdW       -21.65459   -21.65461   -16.55277    -0.00000    -0.00000    -0.00000
  -------------------------------------------------------------------------------------
  Total     -26.11609   -26.11609    -2.06703     0.00000     0.00000     0.00000
  in kB     -27.53129   -27.53129    -2.17904     0.00000     0.00000     0.00000
  external pressure =      -19.08 kB  Pullay stress =        0.00 kB


 VOLUME and BASIS-vectors are now :
 -----------------------------------------------------------------------------
  energy-cutoff  :      600.00
  volume of cell :     1519.82
      direct lattice vectors                 reciprocal lattice vectors
     8.440984654  0.000000000  0.000000000     0.118469591  0.000000000  0.000000000
     0.000000000  8.440984654  0.000000000     0.000000000  0.118469591  0.000000000
     0.000000000  0.000000000 21.330738491     0.000000000  0.000000000  0.046880702

  length of vectors
     8.440984654  8.440984654 21.330738491     0.118469591  0.118469591  0.046880702


 FORCES acting on ions:
    Electron-Ion                     Ewald-Force                    Non-Local-Force
 -----------------------------------------------------------------------------------------------
   0.891E-13 0.889E-12 -.807E+03   0.888E-14 -.266E-14 0.780E+03   0.000E+00 -.662E-23 0.268E+02
   0.331E-12 0.238E-11 -.140E+04   0.133E-14 -.311E-14 0.146E+04   0.000E+00 -.496E-23 -.595E+02
   -.320E-13 -.115E+00 0.208E+04   0.560E-13 0.116E+00 -.207E+04   -.132E-22 -.221E-03 -.716E+01
   0.115E+00 -.386E-12 0.208E+04   -.116E+00 0.671E-13 -.207E+04   0.221E-03 0.132E-22 -.716E+01
   -.512E-13 0.236E-13 0.712E+03   -.150E-10 0.150E-10 -.712E+03   -.265E-22 -.397E-22 0.502E+00
   0.384E+00 -.384E+00 0.713E+03   -.380E+00 0.380E+00 -.713E+03   -.252E-02 0.252E-02 0.528E+00
   -.579E-13 -.258E+01 -.643E+03   0.157E-11 0.257E+01 0.644E+03   -.165E-22 0.153E-01 -.155E+00
   0.258E+01 -.145E-12 -.643E+03   -.257E+01 -.151E-11 0.644E+03   -.153E-01 -.265E-22 -.155E+00
   -.532E-13 -.143E-11 -.200E+04   0.444E-12 -.416E-12 0.200E+04   0.132E-22 -.265E-22 0.608E+01
   0.163E+02 -.163E+02 -.198E+04   -.164E+02 0.164E+02 0.198E+04   0.877E-01 -.877E-01 0.617E+01
   -.360E-13 0.115E+00 0.208E+04   -.277E-12 -.116E+00 -.207E+04   -.496E-23 0.221E-03 -.716E+01
   0.107E+00 0.276E-12 0.208E+04   -.105E+00 0.131E-10 -.207E+04   -.171E-02 -.199E-22 -.716E+01
   -.483E-13 0.109E-11 0.713E+03   -.165E-10 0.000E+00 -.713E+03   0.000E+00 0.000E+00 0.465E+00
   0.384E+00 0.384E+00 0.713E+03   -.380E+00 -.380E+00 -.713E+03   -.252E-02 -.252E-02 0.528E+00
   -.509E-13 0.258E+01 -.643E+03   0.304E-11 -.257E+01 0.644E+03   0.000E+00 -.153E-01 -.155E+00
   0.350E+01 0.132E-11 -.637E+03   -.343E+01 0.178E-14 0.638E+03   -.771E-01 -.529E-22 -.268E+00
   -.958E-14 0.583E-12 -.199E+04   -.355E-13 -.995E-13 0.198E+04   0.000E+00 0.000E+00 0.609E+01
   0.163E+02 0.163E+02 -.198E+04   -.164E+02 -.164E+02 0.198E+04   0.877E-01 0.877E-01 0.617E+01
   0.902E-12 -.107E+00 0.208E+04   -.129E-10 0.105E+00 -.207E+04   -.116E-22 0.171E-02 -.716E+01
   -.115E+00 -.370E-12 0.208E+04   0.116E+00 0.471E-13 -.207E+04   -.221E-03 0.910E-23 -.716E+01
   0.830E-12 -.320E-12 0.713E+03   0.145E-11 0.150E-10 -.713E+03   0.000E+00 0.132E-22 0.465E+00
   -.384E+00 -.384E+00 0.713E+03   0.380E+00 0.380E+00 -.713E+03   0.252E-02 0.252E-02 0.528E+00
   0.830E-12 -.350E+01 -.637E+03   -.141E-11 0.343E+01 0.638E+03   -.529E-22 0.771E-01 -.268E+00
   -.258E+01 -.101E-12 -.643E+03   0.257E+01 -.156E-11 0.644E+03   0.153E-01 -.529E-22 -.155E+00
   0.915E-12 -.126E-11 -.199E+04   0.782E-13 -.355E-14 0.198E+04   -.265E-22 0.000E+00 0.609E+01
   -.163E+02 -.163E+02 -.198E+04   0.164E+02 0.164E+02 0.198E+04   -.877E-01 -.877E-01 0.617E+01
   0.879E-12 0.107E+00 0.208E+04   -.131E-10 -.105E+00 -.207E+04   0.265E-22 -.171E-02 -.716E+01
   -.107E+00 -.229E-12 0.208E+04   0.105E+00 0.131E-10 -.207E+04   0.171E-02 -.265E-22 -.716E+01
   0.869E-12 0.261E-11 0.713E+03   -.782E-13 0.355E-14 -.713E+03   -.265E-22 0.000E+00 0.602E+00
   -.384E+00 0.384E+00 0.713E+03   0.380E+00 -.380E+00 -.713E+03   0.252E-02 -.252E-02 0.528E+00
   0.826E-12 0.350E+01 -.637E+03   -.284E-13 -.343E+01 0.638E+03   0.000E+00 -.771E-01 -.268E+00
   -.350E+01 -.149E-11 -.637E+03   0.343E+01 0.000E+00 0.638E+03   0.771E-01 0.000E+00 -.268E+00
   0.913E-12 0.785E-12 -.193E+04   -.426E-13 -.391E-13 0.192E+04   0.000E+00 0.000E+00 0.469E+01
   -.163E+02 0.163E+02 -.198E+04   0.164E+02 -.164E+02 0.198E+04   -.877E-01 0.877E-01 0.617E+01
   -.652E-13 -.353E+00 0.534E+03   0.409E-13 0.348E+00 -.534E+03   -.265E-22 0.686E-02 -.911E-01
   0.353E+00 -.195E-12 0.534E+03   -.348E+00 0.391E-13 -.534E+03   -.686E-02 0.000E+00 -.911E-01
   -.652E-13 -.976E-12 0.156E+04   0.853E-11 -.844E-11 -.156E+04   0.000E+00 0.794E-22 0.341E+01
   0.828E-01 -.828E-01 0.156E+04   -.820E-01 0.820E-01 -.156E+04   -.103E-02 0.103E-02 0.341E+01
   -.650E-13 -.683E+01 -.152E+04   -.871E-12 0.677E+01 0.153E+04   0.000E+00 0.541E-01 -.495E+01
   0.683E+01 0.855E-12 -.152E+04   -.677E+01 0.881E-12 0.153E+04   -.541E-01 0.000E+00 -.495E+01
   -.582E-13 -.455E-13 -.479E+03   -.853E-13 0.639E-13 0.479E+03   0.000E+00 0.000E+00 0.259E+00
   0.225E+01 -.225E+01 -.474E+03   -.224E+01 0.224E+01 0.474E+03   -.698E-02 0.698E-02 0.326E+00
   -.578E-13 0.353E+00 0.534E+03   0.142E-13 -.348E+00 -.534E+03   0.397E-22 -.686E-02 -.911E-01
   0.299E+00 0.343E-12 0.534E+03   -.325E+00 -.764E-11 -.534E+03   0.358E-01 -.199E-22 -.111E+00
   -.664E-13 -.485E-12 0.156E+04   0.845E-11 -.796E-12 -.156E+04   0.000E+00 0.000E+00 0.341E+01
   0.828E-01 0.828E-01 0.156E+04   -.820E-01 -.820E-01 -.156E+04   -.103E-02 -.103E-02 0.341E+01
   -.615E-13 0.683E+01 -.152E+04   -.774E-12 -.677E+01 0.153E+04   0.000E+00 -.541E-01 -.495E+01
   0.206E+02 0.276E-12 -.149E+04   -.203E+02 0.810E-11 0.150E+04   -.255E+00 0.132E-22 -.494E+01
   -.502E-13 0.576E-12 -.474E+03   -.741E-11 0.711E-14 0.474E+03   0.000E+00 0.000E+00 0.283E+00
   0.225E+01 0.225E+01 -.474E+03   -.224E+01 -.224E+01 0.474E+03   -.698E-02 -.698E-02 0.326E+00
   0.324E-12 -.299E+00 0.534E+03   0.764E-11 0.325E+00 -.534E+03   0.000E+00 -.358E-01 -.111E+00
   -.353E+00 -.227E-12 0.534E+03   0.348E+00 0.142E-13 -.534E+03   0.686E-02 -.132E-22 -.911E-01
   0.374E-12 -.106E-11 0.156E+04   0.845E-12 -.846E-11 -.156E+04   -.331E-23 0.000E+00 0.341E+01
   -.828E-01 -.828E-01 0.156E+04   0.820E-01 0.820E-01 -.156E+04   0.103E-02 0.103E-02 0.341E+01
   0.376E-12 -.206E+02 -.149E+04   -.816E-11 0.203E+02 0.150E+04   -.827E-23 0.255E+00 -.494E+01
   -.683E+01 0.842E-12 -.152E+04   0.677E+01 0.924E-12 0.153E+04   0.541E-01 0.000E+00 -.495E+01
   0.330E-12 -.832E-12 -.474E+03   -.711E-14 0.738E-11 0.474E+03   0.331E-23 0.000E+00 0.283E+00
   -.225E+01 -.225E+01 -.474E+03   0.224E+01 0.224E+01 0.474E+03   0.698E-02 0.698E-02 0.326E+00
   0.325E-12 0.299E+00 0.534E+03   0.763E-11 -.325E+00 -.534E+03   0.165E-23 0.358E-01 -.111E+00
   -.299E+00 0.127E-11 0.534E+03   0.325E+00 -.769E-11 -.534E+03   -.358E-01 0.000E+00 -.111E+00
   0.360E-12 0.296E-12 0.156E+04   0.824E-12 -.838E-12 -.156E+04   0.000E+00 0.000E+00 0.341E+01
   -.828E-01 0.828E-01 0.156E+04   0.820E-01 -.820E-01 -.156E+04   0.103E-02 -.103E-02 0.341E+01
   0.380E-12 0.206E+02 -.149E+04   -.820E-11 -.203E+02 0.150E+04   -.265E-22 -.255E+00 -.494E+01
   -.206E+02 -.230E-11 -.149E+04   0.203E+02 0.819E-11 0.150E+04   0.255E+00 -.529E-22 -.494E+01
   0.302E-12 0.404E-12 -.475E+03   -.497E-13 0.426E-13 0.475E+03   0.000E+00 -.662E-23 -.185E+00
   -.225E+01 0.225E+01 -.474E+03   0.224E+01 -.224E+01 0.474E+03   0.698E-02 -.698E-02 0.326E+00
 -----------------------------------------------------------------------------------------------
   0.263E-10 0.153E-10 0.510E+02   0.937E-13 -.333E-13 0.284E-11   0.260E-16 -.269E-16 -.510E+02


 POSITION                                       TOTAL-FORCE (eV/Angst)
 -----------------------------------------------------------------------------------
      4.22049      4.22049     16.45814        -0.000000     -0.000000     -0.074925
      4.22049      4.22049     17.60496        -0.000000     -0.000000     -0.027065
      0.00000      6.33074      7.50000        -0.000000      0.000056      0.338914
      2.11025      0.00000      7.50000        -0.000056     -0.000000      0.338914
      0.00000      0.00000      9.61025        -0.000000     -0.000000      0.069861
      2.11025      6.33074      9.61025         0.001506     -0.001506      0.072137
      0.00000      6.33023     11.73368        -0.000000      0.000086     -0.003297
      2.11076      0.00000     11.73368        -0.000086     -0.000000     -0.003297
      0.00000      0.00000     13.83822        -0.000000     -0.000000     -0.001420
      2.10905      6.33193     13.83447         0.000394     -0.000394      0.003097
      0.00000      2.11025      7.50000        -0.000000     -0.000056      0.338914
      2.11025      4.22049      7.50000         0.000641     -0.000000      0.338954
      0.00000      4.22049      9.61025        -0.000000     -0.000000      0.078746
      2.11025      2.11025      9.61025         0.001506      0.001506      0.072137
      0.00000      2.11076     11.73368        -0.000000     -0.000086     -0.003297
      2.11344      4.22049     11.73659        -0.004449     -0.000000      0.003797
      0.00000      4.22049     13.83544        -0.000000     -0.000000     -0.000748
      2.10905      2.10905     13.83447         0.000394      0.000394      0.003097
      4.22049      6.33074      7.50000        -0.000000     -0.000641      0.338954
      6.33074      0.00000      7.50000         0.000056     -0.000000      0.338914
      4.22049      0.00000      9.61025        -0.000000     -0.000000      0.078746
      6.33074      6.33074      9.61025        -0.001506     -0.001506      0.072137
      4.22049      6.32754     11.73659        -0.000000      0.004449      0.003797
      6.33023      0.00000     11.73368         0.000086     -0.000000     -0.003297
      4.22049      0.00000     13.83544        -0.000000     -0.000000     -0.000748
      6.33193      6.33193     13.83447        -0.000394     -0.000394      0.003097
      4.22049      2.11025      7.50000        -0.000000      0.000641      0.338954
      6.33074      4.22049      7.50000        -0.000641     -0.000000      0.338954
      4.22049      4.22049      9.61025        -0.000000     -0.000000      0.083593
      6.33074      2.11025      9.61025        -0.001506      0.001506      0.072137
      4.22049      2.11344     11.73659        -0.000000     -0.004449      0.003797
      6.32754      4.22049     11.73659         0.004449     -0.000000      0.003797
      4.22049      4.22049     13.87814        -0.000000     -0.000000      0.081498
      6.33193      2.10905     13.83447        -0.000394      0.000394      0.003097
      0.00000      6.33074      9.61025        -0.000000      0.002074      0.077102
      2.11025      0.00000      9.61025        -0.002074     -0.000000      0.077102
      0.00000      0.00000      7.50000        -0.000000     -0.000000     -0.501480
      2.11025      6.33074      7.50000        -0.000301      0.000301     -0.501245
      0.00000      6.33258     13.88587        -0.000000     -0.002599      0.000600
      2.10840      0.00000     13.88587         0.002599     -0.000000      0.000600
      0.00000      0.00000     11.72785        -0.000000     -0.000000      0.006320
      2.10979      6.33120     11.72890         0.002726     -0.002726     -0.001103
      0.00000      2.11025      9.61025        -0.000000     -0.002074      0.077102
      2.11025      4.22049      9.61025         0.009200     -0.000000      0.086219
      0.00000      4.22049      7.50000        -0.000000     -0.000000     -0.501314
      2.11025      2.11025      7.50000        -0.000301     -0.000301     -0.501245
      0.00000      2.10840     13.88587        -0.000000      0.002599      0.000600
      2.10031      4.22049     13.88381         0.025496     -0.000000      0.010710
      0.00000      4.22049     11.72684        -0.000000     -0.000000      0.004139
      2.10979      2.10979     11.72890         0.002726      0.002726     -0.001103
      4.22049      6.33074      9.61025        -0.000000     -0.009200      0.086219
      6.33074      0.00000      9.61025         0.002074     -0.000000      0.077102
      4.22049      0.00000      7.50000        -0.000000     -0.000000     -0.501314
      6.33074      6.33074      7.50000         0.000301      0.000301     -0.501245
      4.22049      6.34068     13.88381        -0.000000     -0.025496      0.010710
      6.33258      0.00000     13.88587        -0.002599     -0.000000      0.000600
      4.22049      0.00000     11.72684        -0.000000     -0.000000      0.004139
      6.33120      6.33120     11.72890        -0.002726     -0.002726     -0.001103
      4.22049      2.11025      9.61025        -0.000000      0.009200      0.086219
      6.33074      4.22049      9.61025        -0.009200     -0.000000      0.086219
      4.22049      4.22049      7.50000        -0.000000     -0.000000     -0.502000
      6.33074      2.11025      7.50000         0.000301     -0.000301     -0.501245
      4.22049      2.10031     13.88381        -0.000000      0.025496      0.010710
      6.34068      4.22049     13.88381        -0.025496     -0.000000      0.010710
      4.22049      4.22049     11.73684        -0.000000     -0.000000      0.000433
      6.33120      2.10979     11.72890        -0.002726      0.002726     -0.001103
 -----------------------------------------------------------------------------------
    total drift:                                0.000000      0.000000     -0.013666


--------------------------------------------------------------------------------------------------------



  FREE ENERGIE OF THE ION-ELECTRON SYSTEM (eV)
  ---------------------------------------------------
  free  energy   TOTEN  =      -386.04516967 eV

  energy  without entropy=     -386.04516967  energy(sigma->0) =     -386.04516967



--------------------------------------------------------------------------------------------------------


    POTLOK:  cpu time      0.3727: real time      0.3727


--------------------------------------------------------------------------------------------------------


     LOOP+:  cpu time     55.3654: real time     55.7629
    4ORBIT:  cpu time      0.0000: real time      0.0000

 total amount of memory used by VASP MPI-rank0    78528. kBytes
=======================================================================

   base      :      30000. kBytes
   nonl-proj :      29343. kBytes
   fftplans  :       3857. kBytes
   grid      :       5885. kBytes
   one-center:        137. kBytes
   wavefun   :       9306. kBytes

  
  
 General timing and accounting informations for this job:
 ========================================================
  
                  Total CPU time used (sec):       72.853
                            User time (sec):       71.109
                          System time (sec):        1.744
                         Elapsed time (sec):       78.474
  
                   Maximum memory used (kb):      177816.
                   Average memory used (kb):          N/A
  
                          Minor page faults:        32094
                          Major page faults:           50
                 Voluntary context switches:         7230
