 vasp.6.3.0 20Jan22 (build Apr  1 2022 16:44:48) complex                         
 executed on        HPECrayEX_GCC date 2023.05.17  21:47:31
 running  512 mpi-ranks, with    1 threads/rank
 distrk:  each k-point on  256 cores,    2 groups
 distr:  one band on NCORE=   4 cores,   64 groups


--------------------------------------------------------------------------------------------------------


 INCAR:
   SYSTEM = MgO-rocksalt
   ISMEAR = 0
   SIGMA = 0.05
   EDIFF = 1E-6
   ALGO = ALL
   ISTART = 0
   IBRION = -1
   NSW = 0
   ISYM = 2
   ISIF = 2
   EDIFFG = -0.01
   DIPOL = 0.5 0.5 0.5
   IDIPOL = 3
   LDIPOL = .TRUE.
   GGA = RE
   LUSE_VDW = .TRUE.
   AGGAC = 0.0
   ENCUT = 600
   PREC = Normal
   LASPH = .TRUE.
   LREAL = .FALSE.
   ISPIN = 1
   NELM = 200
   NELMIN = 8
   NCORE = 4
   KPAR = 2
   LWAVE = .FALSE.
   LCHARG = .FALSE.

 POTCAR:    PAW_PBE C 08Apr2002                   
 POTCAR:    PAW_PBE O 08Apr2002                   
 POTCAR:    PAW_PBE Mg_pv 13Apr2007               
 POTCAR:    PAW_PBE O 08Apr2002                   
 -----------------------------------------------------------------------------
|                                                                             |
|               ----> ADVICE to this user running VASP <----                  |
|                                                                             |
|     You have switched on vdW-DFT.                                           |
|     This routine was written and supplied by Jiri Klimes. We recommend      |
|     that you carefully read and cite the following publications:            |
|       J. Klimes, D.R. Bowler, A. Michelides                                 |
|          J. Phys.: Cond Matt. 22 022201 (2010)                              |
|       J. Klimes, D.R. Bowler, A. Michelides                                 |
|          Phys. Rev. B. 83, 195131 (2011)                                    |
|     and references therein.                                                 |
|                                                                             |
 -----------------------------------------------------------------------------

 POTCAR:    PAW_PBE C 08Apr2002                   
   SHA256 =  253f7b50bb8d59471dbedb8285d89021f4a42ed1a2c5d38a03a736e69125dd95 C/POTCAR              
   COPYR  = (c) Copyright 08Apr2002 Georg Kresse                                                    
   COPYR  = This file is part of the software VASP. Any use, copying, and all other rights are regul
   COPYR  = If you do not have a valid VASP license, you may not use, copy or distribute this file. 
   VRHFIN =C: s2p2                                                                                  
   LEXCH  = PE                                                                                      
   EATOM  =   147.1560 eV,   10.8157 Ry                                                             
                                                                                                    
   TITEL  = PAW_PBE C 08Apr2002                                                                     
   LULTRA =        F    use ultrasoft PP ?                                                          
   IUNSCR =        1    unscreen: 0-lin 1-nonlin 2-no                                               
   RPACOR =    1.200    partial core radius                                                         
   POMASS =   12.011; ZVAL   =    4.000    mass and valenz                                          
   RCORE  =    1.500    outmost cutoff radius                                                       
   RWIGS  =    1.630; RWIGS  =    0.863    wigner-seitz radius (au A)                               
   ENMAX  =  400.000; ENMIN  =  300.000 eV                                                          
   ICORE  =        2    local potential                                                             
   LCOR   =        T    correct aug charges                                                         
   LPAW   =        T    paw PP                                                                      
   EAUG   =  644.873                                                                                
   DEXC   =    0.000                                                                                
   RMAX   =    1.529    core radius for proj-oper                                                   
   RAUG   =    1.300    factor for augmentation sphere                                              
   RDEP   =    1.501    radius for radial grids                                                     
   RDEPT  =    1.300    core radius for aug-charge                                                  
                                                                                                    
   Atomic configuration                                                                             
    4 entries                                                                                       
     n  l   j            E        occ.                                                              
     1  0  0.50      -273.3789   2.0000                                                             
     2  0  0.50       -13.7508   2.0000                                                             
     2  1  0.50        -5.2854   2.0000                                                             
     3  2  1.50        -5.4423   0.0000                                                             
   Description                                                                                      
     l       E           TYP  RCUT    TYP  RCUT                                                     
     0    -13.7508458     23  1.200                                                                 
     0     -8.2022199     23  1.200                                                                 
     1     -5.2854383     23  1.500                                                                 
     1     34.0145650     23  1.500                                                                 
     2     -5.4423304      7  1.500                                                                 
  local pseudopotential read in
  partial core-charges read in
  partial kinetic energy density read in
  atomic valenz-charges read in
  non local Contribution for L=           0  read in
    real space projection operators read in
  non local Contribution for L=           0  read in
    real space projection operators read in
  non local Contribution for L=           1  read in
    real space projection operators read in
  non local Contribution for L=           1  read in
    real space projection operators read in
    PAW grid and wavefunctions read in

   number of l-projection  operators is LMAX  =           4
   number of lm-projection operators is LMMAX =           8

 POTCAR:    PAW_PBE O 08Apr2002                   
   SHA256 =  818f92134a0a090dccd8ba1447fa70422a3b330e708bb4f08108d8ae51209ddf O/POTCAR              
   COPYR  = (c) Copyright 08Apr2002 Georg Kresse                                                    
   COPYR  = This file is part of the software VASP. Any use, copying, and all other rights are regul
   COPYR  = If you do not have a valid VASP license, you may not use, copy or distribute this file. 
   VRHFIN =O: s2p4                                                                                  
   LEXCH  = PE                                                                                      
   EATOM  =   432.3788 eV,   31.7789 Ry                                                             
                                                                                                    
   TITEL  = PAW_PBE O 08Apr2002                                                                     
   LULTRA =        F    use ultrasoft PP ?                                                          
   IUNSCR =        1    unscreen: 0-lin 1-nonlin 2-no                                               
   RPACOR =    1.200    partial core radius                                                         
   POMASS =   16.000; ZVAL   =    6.000    mass and valenz                                          
   RCORE  =    1.520    outmost cutoff radius                                                       
   RWIGS  =    1.550; RWIGS  =    0.820    wigner-seitz radius (au A)                               
   ENMAX  =  400.000; ENMIN  =  300.000 eV                                                          
   ICORE  =        2    local potential                                                             
   LCOR   =        T    correct aug charges                                                         
   LPAW   =        T    paw PP                                                                      
   EAUG   =  605.392                                                                                
   DEXC   =    0.000                                                                                
   RMAX   =    1.553    core radius for proj-oper                                                   
   RAUG   =    1.300    factor for augmentation sphere                                              
   RDEP   =    1.550    radius for radial grids                                                     
   RDEPT  =    1.329    core radius for aug-charge                                                  
                                                                                                    
   Atomic configuration                                                                             
    4 entries                                                                                       
     n  l   j            E        occ.                                                              
     1  0  0.50      -514.6923   2.0000                                                             
     2  0  0.50       -23.9615   2.0000                                                             
     2  1  0.50        -9.0305   4.0000                                                             
     3  2  1.50        -9.5241   0.0000                                                             
   Description                                                                                      
     l       E           TYP  RCUT    TYP  RCUT                                                     
     0    -23.9615318     23  1.200                                                                 
     0     -9.5240782     23  1.200                                                                 
     1     -9.0304911     23  1.520                                                                 
     1      8.1634956     23  1.520                                                                 
     2     -9.5240782      7  1.500                                                                 
  local pseudopotential read in
  partial core-charges read in
  partial kinetic energy density read in
  kinetic energy density of atom read in
  atomic valenz-charges read in
  non local Contribution for L=           0  read in
    real space projection operators read in
  non local Contribution for L=           0  read in
    real space projection operators read in
  non local Contribution for L=           1  read in
    real space projection operators read in
  non local Contribution for L=           1  read in
    real space projection operators read in
    PAW grid and wavefunctions read in

   number of l-projection  operators is LMAX  =           4
   number of lm-projection operators is LMMAX =           8

 POTCAR:    PAW_PBE Mg_pv 13Apr2007               
   SHA256 =  f474ac0dd33840b9ae76c01d57fea79fdf77cdfbb07d5ade72c65f83c709b62b Mg_pv/POTCAR          
   COPYR  = (c) Copyright 13Apr2007 Georg Kresse                                                    
   COPYR  = This file is part of the software VASP. Any use, copying, and all other rights are regul
   COPYR  = If you do not have a valid VASP license, you may not use, copy or distribute this file. 
   VRHFIN =Mg: p6s2                                                                                 
   LEXCH  = PE                                                                                      
   EATOM  =  1056.7344 eV,   77.6678 Ry                                                             
                                                                                                    
   TITEL  = PAW_PBE Mg_pv 13Apr2007                                                                 
   LULTRA =        F    use ultrasoft PP ?                                                          
   IUNSCR =        1    unscreen: 0-lin 1-nonlin 2-no                                               
   RPACOR =    1.500    partial core radius                                                         
   POMASS =   24.305; ZVAL   =    8.000    mass and valenz                                          
   RCORE  =    2.000    outmost cutoff radius                                                       
   RWIGS  =    2.000; RWIGS  =    1.058    wigner-seitz radius (au A)                               
   ENMAX  =  403.929; ENMIN  =  302.947 eV                                                          
   RCLOC  =    1.506    cutoff for local pot                                                        
   LCOR   =        T    correct aug charges                                                         
   LPAW   =        T    paw PP                                                                      
   EAUG   =  758.780                                                                                
   DEXC   =    0.000                                                                                
   RMAX   =    2.045    core radius for proj-oper                                                   
   RAUG   =    1.300    factor for augmentation sphere                                              
   RDEP   =    2.025    radius for radial grids                                                     
   RDEPT  =    1.557    core radius for aug-charge                                                  
                                                                                                    
   Atomic configuration                                                                             
    5 entries                                                                                       
     n  l   j            E        occ.                                                              
     1  0  0.50     -1259.6230   2.0000                                                             
     2  0  0.50       -79.8442   2.0000                                                             
     2  1  1.50       -46.6121   6.0000                                                             
     3  0  0.50        -4.7055   2.0000                                                             
     3  2  1.50        -1.3606   0.0000                                                             
   Description                                                                                      
     l       E           TYP  RCUT    TYP  RCUT                                                     
     1    -46.6121073     23  1.600                                                                 
     1      2.7211652     23  1.600                                                                 
     0     -4.7054661     23  2.000                                                                 
     0     61.2262170     23  2.000                                                                 
     2     -1.3605826     23  2.000                                                                 
  local pseudopotential read in
  partial core-charges read in
  partial kinetic energy density read in
  atomic valenz-charges read in
  non local Contribution for L=           1  read in
    real space projection operators read in
  non local Contribution for L=           1  read in
    real space projection operators read in
  non local Contribution for L=           0  read in
    real space projection operators read in
  non local Contribution for L=           0  read in
    real space projection operators read in
  non local Contribution for L=           2  read in
    real space projection operators read in
    PAW grid and wavefunctions read in

   number of l-projection  operators is LMAX  =           5
   number of lm-projection operators is LMMAX =          13

 POTCAR:    PAW_PBE O 08Apr2002                   
   SHA256 =  818f92134a0a090dccd8ba1447fa70422a3b330e708bb4f08108d8ae51209ddf O/POTCAR              
   COPYR  = (c) Copyright 08Apr2002 Georg Kresse                                                    
   COPYR  = This file is part of the software VASP. Any use, copying, and all other rights are regul
   COPYR  = If you do not have a valid VASP license, you may not use, copy or distribute this file. 
   VRHFIN =O: s2p4                                                                                  
   LEXCH  = PE                                                                                      
   EATOM  =   432.3788 eV,   31.7789 Ry                                                             
                                                                                                    
   TITEL  = PAW_PBE O 08Apr2002                                                                     
   LULTRA =        F    use ultrasoft PP ?                                                          
   IUNSCR =        1    unscreen: 0-lin 1-nonlin 2-no                                               
   RPACOR =    1.200    partial core radius                                                         
   POMASS =   16.000; ZVAL   =    6.000    mass and valenz                                          
   RCORE  =    1.520    outmost cutoff radius                                                       
   RWIGS  =    1.550; RWIGS  =    0.820    wigner-seitz radius (au A)                               
   ENMAX  =  400.000; ENMIN  =  300.000 eV                                                          
   ICORE  =        2    local potential                                                             
   LCOR   =        T    correct aug charges                                                         
   LPAW   =        T    paw PP                                                                      
   EAUG   =  605.392                                                                                
   DEXC   =    0.000                                                                                
   RMAX   =    1.553    core radius for proj-oper                                                   
   RAUG   =    1.300    factor for augmentation sphere                                              
   RDEP   =    1.550    radius for radial grids                                                     
   RDEPT  =    1.329    core radius for aug-charge                                                  
                                                                                                    
   Atomic configuration                                                                             
    4 entries                                                                                       
     n  l   j            E        occ.                                                              
     1  0  0.50      -514.6923   2.0000                                                             
     2  0  0.50       -23.9615   2.0000                                                             
     2  1  0.50        -9.0305   4.0000                                                             
     3  2  1.50        -9.5241   0.0000                                                             
   Description                                                                                      
     l       E           TYP  RCUT    TYP  RCUT                                                     
     0    -23.9615318     23  1.200                                                                 
     0     -9.5240782     23  1.200                                                                 
     1     -9.0304911     23  1.520                                                                 
     1      8.1634956     23  1.520                                                                 
     2     -9.5240782      7  1.500                                                                 
  local pseudopotential read in
  partial core-charges read in
  partial kinetic energy density read in
  kinetic energy density of atom read in
  atomic valenz-charges read in
  non local Contribution for L=           0  read in
    real space projection operators read in
  non local Contribution for L=           0  read in
    real space projection operators read in
  non local Contribution for L=           1  read in
    real space projection operators read in
  non local Contribution for L=           1  read in
    real space projection operators read in
    PAW grid and wavefunctions read in

   number of l-projection  operators is LMAX  =           4
   number of lm-projection operators is LMMAX =           8

 -----------------------------------------------------------------------------
|                                                                             |
|               ----> ADVICE to this user running VASP <----                  |
|                                                                             |
|     You have a (more or less) 'large supercell' and for larger cells it     |
|     might be more efficient to use real-space projection operators.         |
|     Therefore, try LREAL= Auto in the INCAR file.                           |
|     Mind: For very accurate calculation, you might also keep the            |
|     reciprocal projection scheme (i.e. LREAL=.FALSE.).                      |
|                                                                             |
 -----------------------------------------------------------------------------

 -----------------------------------------------------------------------------
|                                                                             |
|               ----> ADVICE to this user running VASP <----                  |
|                                                                             |
|     You enforced a specific xc type in the INCAR file but a different       |
|     type was found in the POTCAR file.                                      |
|     I HOPE YOU KNOW WHAT YOU ARE DOING!                                     |
|                                                                             |
 -----------------------------------------------------------------------------

  PAW_PBE C 08Apr2002                   :
 energy of atom  1       EATOM= -147.1560
 kinetic energy error for atom=    0.0057 (will be added to EATOM!!)
  PAW_PBE O 08Apr2002                   :
 energy of atom  2       EATOM= -432.3788
 kinetic energy error for atom=    0.0168 (will be added to EATOM!!)
  PAW_PBE Mg_pv 13Apr2007               :
 energy of atom  3       EATOM=-1056.7344
 kinetic energy error for atom=    0.0221 (will be added to EATOM!!)
  PAW_PBE O 08Apr2002                   :
 energy of atom  4       EATOM= -432.3788
 kinetic energy error for atom=    0.0168 (will be added to EATOM!!)


 POSCAR:  C  O Mg  O
  positions in direct lattice
  No initial velocities read in
 exchange correlation table for  LEXCH =       40
   RHO(1)=    0.500       N(1)  =     2000
   RHO(2)=  100.500       N(2)  =     4000



--------------------------------------------------------------------------------------------------------


 ion  position               nearest neighbor table
   1  0.500  0.500  0.766-   2 1.15
   2  0.500  0.500  0.820-   1 1.15
   3  0.000  0.750  0.352-  35 2.11  37 2.11  38 2.11  45 2.11  54 2.11
   4  0.250  0.000  0.352-  36 2.11  37 2.11  38 2.11  46 2.11  53 2.11
   5  0.000  0.000  0.451-  37 2.11  36 2.11  35 2.11  43 2.11  52 2.11  41 2.12
   6  0.250  0.750  0.451-  38 2.11  36 2.11  35 2.11  44 2.11  51 2.11  42 2.12
   7  0.000  0.750  0.550-  49 2.11  42 2.11  58 2.11  41 2.11  35 2.12  39 2.15
   8  0.250  0.000  0.550-  57 2.11  50 2.11  42 2.11  41 2.11  36 2.12  40 2.15
   9  0.000  0.000  0.649-  39 2.11  40 2.11  47 2.11  56 2.11  41 2.11
  10  0.250  0.750  0.649-  42 2.11  40 2.11  39 2.11  48 2.11  55 2.11
  11  0.000  0.250  0.352-  43 2.11  37 2.11  45 2.11  46 2.11  62 2.11
  12  0.250  0.500  0.352-  44 2.11  38 2.11  45 2.11  46 2.11  61 2.11
  13  0.000  0.500  0.451-  45 2.11  43 2.11  44 2.11  35 2.11  60 2.11  49 2.12
  14  0.250  0.250  0.451-  46 2.11  43 2.11  44 2.11  36 2.11  59 2.11  50 2.12
  15  0.000  0.250  0.550-  49 2.11  50 2.11  66 2.11  41 2.11  43 2.12  47 2.15
  16  0.250  0.500  0.550-  65 2.11  50 2.11  42 2.11  49 2.11  44 2.13  48 2.15
  17  0.000  0.500  0.649-  48 2.10  64 2.10  49 2.11  47 2.11  39 2.11
  18  0.250  0.250  0.649-  50 2.11  47 2.11  40 2.11  48 2.11  63 2.11
  19  0.500  0.750  0.352-  51 2.11  38 2.11  53 2.11  54 2.11  61 2.11
  20  0.750  0.000  0.352-  52 2.11  37 2.11  53 2.11  54 2.11  62 2.11
  21  0.500  0.000  0.451-  53 2.11  51 2.11  52 2.11  36 2.11  59 2.11  57 2.12
  22  0.750  0.750  0.451-  54 2.11  51 2.11  52 2.11  35 2.11  60 2.11  58 2.12
  23  0.500  0.750  0.550-  65 2.11  58 2.11  42 2.11  57 2.11  51 2.13  55 2.15
  24  0.750  0.000  0.550-  57 2.11  58 2.11  66 2.11  41 2.11  52 2.12  56 2.15
  25  0.500  0.000  0.649-  55 2.10  63 2.10  57 2.11  40 2.11  56 2.11
  26  0.750  0.750  0.649-  58 2.11  56 2.11  39 2.11  55 2.11  64 2.11
  27  0.500  0.250  0.352-  59 2.11  53 2.11  46 2.11  61 2.11  62 2.11
  28  0.750  0.500  0.352-  60 2.11  54 2.11  45 2.11  61 2.11  62 2.11
  29  0.500  0.500  0.451-  61 2.11  51 2.11  59 2.11  60 2.11  44 2.11  65 2.13
  30  0.750  0.250  0.451-  62 2.11  52 2.11  59 2.11  60 2.11  43 2.11  66 2.12
  31  0.500  0.250  0.550-  65 2.11  50 2.11  66 2.11  57 2.11  59 2.13  63 2.15
  32  0.750  0.500  0.550-  65 2.11  58 2.11  66 2.11  49 2.11  60 2.13  64 2.15
  33  0.500  0.500  0.651-  48 2.12  55 2.12  63 2.12  64 2.12  65 2.14
  34  0.750  0.250  0.649-  66 2.11  56 2.11  47 2.11  64 2.11  63 2.11
  35  0.000  0.750  0.451-   3 2.11   5 2.11   6 2.11  13 2.11  22 2.11   7 2.12
  36  0.250  0.000  0.451-   4 2.11   5 2.11   6 2.11  14 2.11  21 2.11   8 2.12
  37  0.000  0.000  0.352-   5 2.11   4 2.11   3 2.11  11 2.11  20 2.11
  38  0.250  0.750  0.352-   6 2.11   4 2.11   3 2.11  12 2.11  19 2.11
  39  0.000  0.750  0.651-   9 2.11  10 2.11  26 2.11  17 2.11   7 2.15
  40  0.250  0.000  0.651-   9 2.11  10 2.11  18 2.11  25 2.11   8 2.15
  41  0.000  0.000  0.550-   9 2.11   8 2.11   7 2.11  15 2.11  24 2.11   5 2.12
  42  0.250  0.750  0.550-  10 2.11   8 2.11   7 2.11  16 2.11  23 2.11   6 2.12
  43  0.000  0.250  0.451-  11 2.11   5 2.11  13 2.11  14 2.11  30 2.11  15 2.12
  44  0.250  0.500  0.451-  12 2.11   6 2.11  13 2.11  14 2.11  29 2.11  16 2.13
  45  0.000  0.500  0.352-  13 2.11  11 2.11  12 2.11   3 2.11  28 2.11
  46  0.250  0.250  0.352-  14 2.11  11 2.11  12 2.11   4 2.11  27 2.11
  47  0.000  0.250  0.651-   9 2.11  18 2.11  34 2.11  17 2.11  15 2.15
  48  0.249  0.500  0.651-  17 2.10  10 2.11  18 2.11  33 2.12  16 2.15
  49  0.000  0.500  0.550-  17 2.11  15 2.11   7 2.11  16 2.11  32 2.11  13 2.12
  50  0.250  0.250  0.550-  18 2.11  15 2.11   8 2.11  16 2.11  31 2.11  14 2.12
  51  0.500  0.750  0.451-  19 2.11   6 2.11  21 2.11  22 2.11  29 2.11  23 2.13
  52  0.750  0.000  0.451-  20 2.11   5 2.11  21 2.11  22 2.11  30 2.11  24 2.12
  53  0.500  0.000  0.352-  21 2.11  19 2.11  20 2.11   4 2.11  27 2.11
  54  0.750  0.750  0.352-  22 2.11  19 2.11  20 2.11   3 2.11  28 2.11
  55  0.500  0.751  0.651-  25 2.10  10 2.11  26 2.11  33 2.12  23 2.15
  56  0.750  0.000  0.651-   9 2.11  26 2.11  34 2.11  25 2.11  24 2.15
  57  0.500  0.000  0.550-  25 2.11  24 2.11   8 2.11  23 2.11  31 2.11  21 2.12
  58  0.750  0.750  0.550-  26 2.11  24 2.11   7 2.11  32 2.11  23 2.11  22 2.12
  59  0.500  0.250  0.451-  27 2.11  21 2.11  14 2.11  29 2.11  30 2.11  31 2.13
  60  0.750  0.500  0.451-  28 2.11  22 2.11  13 2.11  29 2.11  30 2.11  32 2.13
  61  0.500  0.500  0.352-  29 2.11  19 2.11  27 2.11  28 2.11  12 2.11
  62  0.750  0.250  0.352-  30 2.11  20 2.11  27 2.11  28 2.11  11 2.11
  63  0.500  0.249  0.651-  25 2.10  18 2.11  34 2.11  33 2.12  31 2.15
  64  0.751  0.500  0.651-  17 2.10  26 2.11  34 2.11  33 2.12  32 2.15
  65  0.500  0.500  0.550-  16 2.11  23 2.11  31 2.11  32 2.11  29 2.13  33 2.14
  66  0.750  0.250  0.550-  34 2.11  24 2.11  15 2.11  32 2.11  31 2.11  30 2.12

  LATTYP: Found a simple tetragonal cell.
 ALAT       =     8.4409846542
 C/A-ratio  =     2.5270438657
  
  Lattice vectors:
  
 A1 = (   8.4409846542,   0.0000000000,   0.0000000000)
 A2 = (   0.0000000000,   8.4409846542,   0.0000000000)
 A3 = (   0.0000000000,   0.0000000000,  21.3307384906)


Analysis of symmetry for initial positions (statically):
=====================================================================
 Subroutine PRICEL returns:
 Original cell was already a primitive cell.
 

 Routine SETGRP: Setting up the symmetry group for a 
 simple tetragonal supercell.


 Subroutine GETGRP returns: Found  8 space group operations
 (whereof  8 operations were pure point group operations)
 out of a pool of 16 trial point group operations.


The static configuration has the point symmetry C_4v.


Analysis of symmetry for dynamics (positions and initial velocities):
=====================================================================
 Subroutine PRICEL returns:
 Original cell was already a primitive cell.
 

 Routine SETGRP: Setting up the symmetry group for a 
 simple tetragonal supercell.


 Subroutine GETGRP returns: Found  8 space group operations
 (whereof  8 operations were pure point group operations)
 out of a pool of 16 trial point group operations.


The dynamic configuration has the point symmetry C_4v.


 Subroutine INISYM returns: Found  8 space group operations
 (whereof  8 operations are pure point group operations),
 and found     1 'primitive' translations


----------------------------------------------------------------------------------------

                                     Primitive cell                                     

  volume of cell :    1519.8199

  direct lattice vectors                    reciprocal lattice vectors
     8.440984654  0.000000000  0.000000000     0.118469591  0.000000000  0.000000000
     0.000000000  8.440984654  0.000000000     0.000000000  0.118469591  0.000000000
     0.000000000  0.000000000 21.330738491     0.000000000  0.000000000  0.046880702

  length of vectors
     8.440984654  8.440984654 21.330738491     0.118469591  0.118469591  0.046880702

  position of ions in fractional coordinates (direct lattice)
     0.500000000  0.500000000  0.765943488
     0.500000000  0.500000000  0.819707206
     0.000000000  0.750000000  0.351605267
     0.250000000  0.000000000  0.351605267
     0.000000000  0.000000000  0.450535089
     0.250000000  0.750000000  0.450535089
     0.000000000  0.749939268  0.550083239
     0.250060732  0.000000000  0.550083239
     0.000000000  0.000000000  0.648745309
     0.249858327  0.750141673  0.648569547
     0.000000000  0.250000000  0.351605267
     0.250000000  0.500000000  0.351605267
     0.000000000  0.500000000  0.450535089
     0.250000000  0.250000000  0.450535089
     0.000000000  0.250060732  0.550083239
     0.250378379  0.500000000  0.550219524
     0.000000000  0.500000000  0.648615280
     0.249858327  0.249858327  0.648569547
     0.500000000  0.750000000  0.351605267
     0.750000000  0.000000000  0.351605267
     0.500000000  0.000000000  0.450535089
     0.750000000  0.750000000  0.450535089
     0.500000000  0.749621621  0.550219524
     0.749939268  0.000000000  0.550083239
     0.500000000  0.000000000  0.648615280
     0.750141673  0.750141673  0.648569547
     0.500000000  0.250000000  0.351605267
     0.750000000  0.500000000  0.351605267
     0.500000000  0.500000000  0.450535089
     0.750000000  0.250000000  0.450535089
     0.500000000  0.250378379  0.550219524
     0.749621621  0.500000000  0.550219524
     0.500000000  0.500000000  0.650616960
     0.750141673  0.249858327  0.648569547
     0.000000000  0.750000000  0.450535089
     0.250000000  0.000000000  0.450535089
     0.000000000  0.000000000  0.351605267
     0.250000000  0.750000000  0.351605267
     0.000000000  0.750218533  0.650979255
     0.249781467  0.000000000  0.650979255
     0.000000000  0.000000000  0.549809890
     0.249945770  0.750054230  0.549859113
     0.000000000  0.250000000  0.450535089
     0.250000000  0.500000000  0.450535089
     0.000000000  0.500000000  0.351605267
     0.250000000  0.250000000  0.351605267
     0.000000000  0.249781467  0.650979255
     0.248822710  0.500000000  0.650882872
     0.000000000  0.500000000  0.549762666
     0.249945770  0.249945770  0.549859113
     0.500000000  0.750000000  0.450535089
     0.750000000  0.000000000  0.450535089
     0.500000000  0.000000000  0.351605267
     0.750000000  0.750000000  0.351605267
     0.500000000  0.751177290  0.650882872
     0.750218533  0.000000000  0.650979255
     0.500000000  0.000000000  0.549762666
     0.750054230  0.750054230  0.549859113
     0.500000000  0.250000000  0.450535089
     0.750000000  0.500000000  0.450535089
     0.500000000  0.500000000  0.351605267
     0.750000000  0.250000000  0.351605267
     0.500000000  0.248822710  0.650882872
     0.751177290  0.500000000  0.650882872
     0.500000000  0.500000000  0.550231357
     0.750054230  0.249945770  0.549859113

  ion indices of the primitive-cell ions
   primitive index   ion index
                 1           1
                 2           2
                 3           3
                 4           4
                 5           5
                 6           6
                 7           7
                 8           8
                 9           9
                10          10
                11          11
                12          12
                13          13
                14          14
                15          15
                16          16
                17          17
                18          18
                19          19
                20          20
                21          21
                22          22
                23          23
                24          24
                25          25
                26          26
                27          27
                28          28
                29          29
                30          30
                31          31
                32          32
                33          33
                34          34
                35          35
                36          36
                37          37
                38          38
                39          39
                40          40
                41          41
                42          42
                43          43
                44          44
                45          45
                46          46
                47          47
                48          48
                49          49
                50          50
                51          51
                52          52
                53          53
                54          54
                55          55
                56          56
                57          57
                58          58
                59          59
                60          60
                61          61
                62          62
                63          63
                64          64
                65          65
                66          66

----------------------------------------------------------------------------------------



 KPOINTS: pymatgen v2020.8.13 with grid density = 

Automatic generation of k-mesh.
 Grid dimensions read from file:
 generate k-points for:    2    2    1

 Generating k-lattice:

  Cartesian coordinates                     Fractional coordinates (reciprocal lattice)
     0.059234796  0.000000000  0.000000000     0.500000000  0.000000000  0.000000000
     0.000000000  0.059234796  0.000000000     0.000000000  0.500000000  0.000000000
     0.000000000  0.000000000  0.046880702     0.000000000  0.000000000  1.000000000

  Length of vectors
     0.059234796  0.059234796  0.046880702

  Shift w.r.t. Gamma in fractional coordinates (k-lattice)
     0.000000000  0.000000000  0.000000000

 
 Subroutine IBZKPT returns following result:
 ===========================================
 
 Found      3 irreducible k-points:
 
 Following reciprocal coordinates:
            Coordinates               Weight
  0.000000  0.000000  0.000000      1.000000
  0.500000  0.000000  0.000000      2.000000
  0.500000  0.500000  0.000000      1.000000
 
 Following cartesian coordinates:
            Coordinates               Weight
  0.000000  0.000000  0.000000      1.000000
  0.059235  0.000000  0.000000      2.000000
  0.059235  0.059235  0.000000      1.000000
 


--------------------------------------------------------------------------------------------------------




 Dimension of arrays:
   k-points           NKPTS =      3   k-points in BZ     NKDIM =      3   number of bands    NBANDS=    320
   number of dos      NEDOS =    301   number of ions     NIONS =     66
   non local maximal  LDIM  =      5   non local SUM 2l+1 LMDIM =     13
   total plane-waves  NPLWV = 373248
   max r-space proj   IRMAX =      1   max aug-charges    IRDMAX=   5039
   dimension x,y,z NGX =    54 NGY =   54 NGZ =  128
   dimension x,y,z NGXF=   108 NGYF=  108 NGZF=  256
   support grid    NGXF=   108 NGYF=  108 NGZF=  256
   ions per type =               1   1  32  32
   NGX,Y,Z   is equivalent  to a cutoff of  10.64, 10.64,  9.98 a.u.
   NGXF,Y,Z  is equivalent  to a cutoff of  21.27, 21.27, 19.95 a.u.

 SYSTEM =  MgO-rocksalt                            
 POSCAR =   C  O Mg  O                             

 Startparameter for this run:
   NWRITE =      2    write-flag & timer
   PREC   = normal    normal or accurate (medium, high low for compatibility)
   ISTART =      0    job   : 0-new  1-cont  2-samecut
   ICHARG =      2    charge: 1-file 2-atom 10-const
   ISPIN  =      1    spin polarized calculation?
   LNONCOLLINEAR =      F non collinear calculations
   LSORBIT =      F    spin-orbit coupling
   INIWAV =      1    electr: 0-lowe 1-rand  2-diag
   LASPH  =      T    aspherical Exc in radial PAW
 Electronic Relaxation 1
   ENCUT  =  600.0 eV  44.10 Ry    6.64 a.u.  16.86 16.86 42.60*2*pi/ulx,y,z
   ENINI  =  600.0     initial cutoff
   ENAUG  =  758.8 eV  augmentation charge cutoff
   NELM   =    200;   NELMIN=  8; NELMDL= -5     # of ELM steps 
   EDIFF  = 0.1E-05   stopping-criterion for ELM
   LREAL  =      F    real-space projection
   NLSPLINE    = F    spline interpolate recip. space projectors
   LCOMPAT=      F    compatible to vasp.4.4
   GGA_COMPAT  = T    GGA compatible to vasp.4.4-vasp.4.6
   LMAXPAW     = -100 max onsite density
   LMAXMIX     =    2 max onsite mixed and CHGCAR
   VOSKOWN=      0    Vosko Wilk Nusair interpolation
   ROPT   =    0.00000   0.00000   0.00000   0.00000
 Ionic relaxation
   EDIFFG = -.1E-01   stopping-criterion for IOM
   NSW    =      0    number of steps for IOM
   NBLOCK =      1;   KBLOCK =      1    inner block; outer block 
   IBRION =     -1    ionic relax: 0-MD 1-quasi-New 2-CG
   NFREE  =      0    steps in history (QN), initial steepest desc. (CG)
   ISIF   =      2    stress and relaxation
   IWAVPR =     10    prediction:  0-non 1-charg 2-wave 3-comb
   ISYM   =      2    0-nonsym 1-usesym 2-fastsym
   LCORR  =      T    Harris-Foulkes like correction to forces

   POTIM  = 0.5000    time-step for ionic-motion
   TEIN   =    0.0    initial temperature
   TEBEG  =    0.0;   TEEND  =   0.0 temperature during run
   SMASS  =  -3.00    Nose mass-parameter (am)
   estimated Nose-frequenzy (Omega)   =  0.10E-29 period in steps = 0.13E+47 mass=  -0.163E-26a.u.
   SCALEE = 1.0000    scale energy and forces
   NPACO  =    256;   APACO  = 10.0  distance and # of slots for P.C.
   PSTRESS=    0.0 pullay stress

  Mass of Ions in am
   POMASS =  12.01 16.00 24.30 16.00
  Ionic Valenz
   ZVAL   =   4.00  6.00  8.00  6.00
  Atomic Wigner-Seitz radii
   RWIGS  =  -1.00 -1.00 -1.00 -1.00
  virtual crystal weights 
   VCA    =   1.00  1.00  1.00  1.00
   NELECT =     458.0000    total number of electrons
   NUPDOWN=      -1.0000    fix difference up-down

 DOS related values:
   EMIN   =  10.00;   EMAX   =-10.00  energy-range for DOS
   EFERMI =   0.00
   ISMEAR =     0;   SIGMA  =   0.05  broadening in eV -4-tet -1-fermi 0-gaus

 Electronic relaxation 2 (details)
   IALGO  =     58    algorithm
   LDIAG  =      T    sub-space diagonalisation (order eigenvalues)
   LSUBROT=      F    optimize rotation matrix (better conditioning)
   TURBO    =      0    0=normal 1=particle mesh
   IRESTART =      0    0=no restart 2=restart with 2 vectors
   NREBOOT  =      0    no. of reboots
   NMIN     =      0    reboot dimension
   EREF     =   0.00    reference energy to select bands
   IMIX   =      4    mixing-type and parameters
     AMIX     =   0.40;   BMIX     =  1.00
     AMIX_MAG =   1.60;   BMIX_MAG =  1.00
     AMIN     =   0.10
     WC   =   100.;   INIMIX=   1;  MIXPRE=   1;  MAXMIX= -45

 Intra band minimization:
   WEIMIN = 0.0000     energy-eigenvalue tresh-hold
   EBREAK =  0.78E-09  absolut break condition
   DEPER  =   0.30     relativ break condition  

   TIME   =   0.40     timestep for ELM

  volume/ion in A,a.u.               =      23.03       155.40
  Fermi-wavevector in a.u.,A,eV,Ry     =   1.097571  2.074108 16.390423  1.204662
  Thomas-Fermi vector in A             =   2.233933

 Write flags
   LWAVE        =      F    write WAVECAR
   LDOWNSAMPLE  =      F    k-point downsampling of WAVECAR
   LCHARG       =      F    write CHGCAR
   LVTOT        =      F    write LOCPOT, total local potential
   LVHAR        =      F    write LOCPOT, Hartree potential only
   LELF         =      F    write electronic localiz. function (ELF)
   LORBIT       =      0    0 simple, 1 ext, 2 COOP (PROOUT), +10 PAW based schemes


 Dipole corrections
   LMONO  =      F    monopole corrections only (constant potential shift)
   LDIPOL =      T    correct potential (dipole corrections)
   IDIPOL =      3    1-x, 2-y, 3-z, 4-all directions 
   EPSILON=  1.0000000 bulk dielectric constant

 Exchange correlation treatment:
   GGA     =    RE    GGA type
   LEXCH   =    40    internal setting for exchange type
   LIBXC   =     F    Libxc                    
   VOSKOWN =     0    Vosko Wilk Nusair interpolation
   LHFCALC =     F    Hartree Fock is set to
   LHFONE  =     F    Hartree Fock one center treatment
   AEXX    =    0.0000 exact exchange contribution

 vdW DFT:
   LUSE_VDW   =     T    switch on vdW DFT
   Zab_VDW    =-.8491    correlation parameter
   PARAM1     =0.1234
   PARAM2     =1.0000
   PARAM3     =0.0000
   -- rVV10 --
   BPARAM     = 6.3000
   CPARAM     = 0.0093

 Linear response parameters
   LEPSILON=     F    determine dielectric tensor
   LRPA    =     F    only Hartree local field effects (RPA)
   LNABLA  =     F    use nabla operator in PAW spheres
   LVEL    =     F    velocity operator in full k-point grid
   CSHIFT  =0.1000    complex shift for real part using Kramers Kronig
   OMEGAMAX=  -1.0    maximum frequency
   DEG_THRESHOLD= 0.2000000E-02 threshold for treating states as degnerate
   RTIME   =   -0.100 relaxation time in fs
  (WPLASMAI=    0.000 imaginary part of plasma frequency in eV, 0.658/RTIME)
   DFIELD  = 0.0000000 0.0000000 0.0000000 field for delta impulse in time

  Optional k-point grid parameters
   LKPOINTS_OPT  =     F    use optional k-point grid
   KPOINTS_OPT_MODE=     1    mode for optional k-point grid

 Orbital magnetization related:
   ORBITALMAG=     F  switch on orbital magnetization
   LCHIMAG   =     F  perturbation theory with respect to B field
   DQ        =  0.001000  dq finite difference perturbation B field
   LLRAUG    =     F  two centre corrections for induced B field



--------------------------------------------------------------------------------------------------------


 Static calculation
 charge density and potential will be updated during run
 non-spin polarized calculation
 Conjugate gradient for all bands (Freysoldt, et al. PRB 79, 241103 (2009))
 preconditioned conjugated gradient                                        
 perform sub-space diagonalisation
    before iterative eigenvector-optimisation
 modified Broyden-mixing scheme, WC =      100.0
 initial mixing is a Kerker type mixing with AMIX =  0.4000 and BMIX =      1.0000
 Hartree-type preconditioning will be used
 using additional bands           91
 reciprocal scheme for non local part
 use partial core corrections
 no Harris-corrections to forces 
 use gradient corrections 
 use of overlap-Matrix (Vanderbilt PP)
 Gauss-broadening in eV      SIGMA  =   0.05


--------------------------------------------------------------------------------------------------------


  energy-cutoff  :      600.00
  volume of cell :     1519.82
      direct lattice vectors                 reciprocal lattice vectors
     8.440984654  0.000000000  0.000000000     0.118469591  0.000000000  0.000000000
     0.000000000  8.440984654  0.000000000     0.000000000  0.118469591  0.000000000
     0.000000000  0.000000000 21.330738491     0.000000000  0.000000000  0.046880702

  length of vectors
     8.440984654  8.440984654 21.330738491     0.118469591  0.118469591  0.046880702



 k-points in units of 2pi/SCALE and weight: pymatgen v2020.8.13 with grid density = 
   0.00000000  0.00000000  0.00000000       0.250
   0.05923480  0.00000000  0.00000000       0.500
   0.05923480  0.05923480  0.00000000       0.250

 k-points in reciprocal lattice and weights: pymatgen v2020.8.13 with grid density = 
   0.00000000  0.00000000  0.00000000       0.250
   0.50000000  0.00000000  0.00000000       0.500
   0.50000000  0.50000000  0.00000000       0.250

 position of ions in fractional coordinates (direct lattice) 
   0.50000000  0.50000000  0.76594349
   0.50000000  0.50000000  0.81970721
   0.00000000  0.75000000  0.35160527
   0.25000000  0.00000000  0.35160527
   0.00000000  0.00000000  0.45053509
   0.25000000  0.75000000  0.45053509
   0.00000000  0.74993927  0.55008324
   0.25006073  0.00000000  0.55008324
   0.00000000  0.00000000  0.64874531
   0.24985833  0.75014167  0.64856955
   0.00000000  0.25000000  0.35160527
   0.25000000  0.50000000  0.35160527
   0.00000000  0.50000000  0.45053509
   0.25000000  0.25000000  0.45053509
   0.00000000  0.25006073  0.55008324
   0.25037838  0.50000000  0.55021952
   0.00000000  0.50000000  0.64861528
   0.24985833  0.24985833  0.64856955
   0.50000000  0.75000000  0.35160527
   0.75000000  0.00000000  0.35160527
   0.50000000  0.00000000  0.45053509
   0.75000000  0.75000000  0.45053509
   0.50000000  0.74962162  0.55021952
   0.74993927  0.00000000  0.55008324
   0.50000000  0.00000000  0.64861528
   0.75014167  0.75014167  0.64856955
   0.50000000  0.25000000  0.35160527
   0.75000000  0.50000000  0.35160527
   0.50000000  0.50000000  0.45053509
   0.75000000  0.25000000  0.45053509
   0.50000000  0.25037838  0.55021952
   0.74962162  0.50000000  0.55021952
   0.50000000  0.50000000  0.65061696
   0.75014167  0.24985833  0.64856955
   0.00000000  0.75000000  0.45053509
   0.25000000  0.00000000  0.45053509
   0.00000000  0.00000000  0.35160527
   0.25000000  0.75000000  0.35160527
   0.00000000  0.75021853  0.65097926
   0.24978147  0.00000000  0.65097926
   0.00000000  0.00000000  0.54980989
   0.24994577  0.75005423  0.54985911
   0.00000000  0.25000000  0.45053509
   0.25000000  0.50000000  0.45053509
   0.00000000  0.50000000  0.35160527
   0.25000000  0.25000000  0.35160527
   0.00000000  0.24978147  0.65097926
   0.24882271  0.50000000  0.65088287
   0.00000000  0.50000000  0.54976267
   0.24994577  0.24994577  0.54985911
   0.50000000  0.75000000  0.45053509
   0.75000000  0.00000000  0.45053509
   0.50000000  0.00000000  0.35160527
   0.75000000  0.75000000  0.35160527
   0.50000000  0.75117729  0.65088287
   0.75021853  0.00000000  0.65097926
   0.50000000  0.00000000  0.54976267
   0.75005423  0.75005423  0.54985911
   0.50000000  0.25000000  0.45053509
   0.75000000  0.50000000  0.45053509
   0.50000000  0.50000000  0.35160527
   0.75000000  0.25000000  0.35160527
   0.50000000  0.24882271  0.65088287
   0.75117729  0.50000000  0.65088287
   0.50000000  0.50000000  0.55023136
   0.75005423  0.24994577  0.54985911

 position of ions in cartesian coordinates  (Angst):
   4.22049233  4.22049233 16.33814023
   4.22049233  4.22049233 17.48496005
   0.00000000  6.33073849  7.50000000
   2.11024616  0.00000000  7.50000000
   0.00000000  0.00000000  9.61024616
   2.11024616  6.33073849  9.61024616
   0.00000000  6.33022585 11.73368172
   2.11075880  0.00000000 11.73368172
   0.00000000  0.00000000 13.83821654
   2.10905031  6.33193435 13.83446740
   0.00000000  2.11024616  7.50000000
   2.11024616  4.22049233  7.50000000
   0.00000000  4.22049233  9.61024616
   2.11024616  2.11024616  9.61024616
   0.00000000  2.11075880 11.73368172
   2.11344006  4.22049233 11.73658877
   0.00000000  4.22049233 13.83544293
   2.10905031  2.10905031 13.83446740
   4.22049233  6.33073849  7.50000000
   6.33073849  0.00000000  7.50000000
   4.22049233  0.00000000  9.61024616
   6.33073849  6.33073849  9.61024616
   4.22049233  6.32754460 11.73658877
   6.33022585  0.00000000 11.73368172
   4.22049233  0.00000000 13.83544293
   6.33193435  6.33193435 13.83446740
   4.22049233  2.11024616  7.50000000
   6.33073849  4.22049233  7.50000000
   4.22049233  4.22049233  9.61024616
   6.33073849  2.11024616  9.61024616
   4.22049233  2.11344006 11.73658877
   6.32754460  4.22049233 11.73658877
   4.22049233  4.22049233 13.87814023
   6.33193435  2.10905031 13.83446740
   0.00000000  6.33073849  9.61024616
   2.11024616  0.00000000  9.61024616
   0.00000000  0.00000000  7.50000000
   2.11024616  6.33073849  7.50000000
   0.00000000  6.33258312 13.88586825
   2.10840153  0.00000000 13.88586825
   0.00000000  0.00000000 11.72785099
   2.10978841  6.33119624 11.72890095
   0.00000000  2.11024616  9.61024616
   2.11024616  4.22049233  9.61024616
   0.00000000  4.22049233  7.50000000
   2.11024616  2.11024616  7.50000000
   0.00000000  2.10840153 13.88586825
   2.10030867  4.22049233 13.88381232
   0.00000000  4.22049233 11.72684365
   2.10978841  2.10978841 11.72890095
   4.22049233  6.33073849  9.61024616
   6.33073849  0.00000000  9.61024616
   4.22049233  0.00000000  7.50000000
   6.33073849  6.33073849  7.50000000
   4.22049233  6.34067598 13.88381232
   6.33258312  0.00000000 13.88586825
   4.22049233  0.00000000 11.72684365
   6.33119624  6.33119624 11.72890095
   4.22049233  2.11024616  9.61024616
   6.33073849  4.22049233  9.61024616
   4.22049233  4.22049233  7.50000000
   6.33073849  2.11024616  7.50000000
   4.22049233  2.10030867 13.88381232
   6.34067598  4.22049233 13.88381232
   4.22049233  4.22049233 11.73684118
   6.33119624  2.10978841 11.72890095



--------------------------------------------------------------------------------------------------------


 k-point   1 :   0.0000 0.0000 0.0000  plane waves:   50745
 k-point   2 :   0.5000 0.0000 0.0000  plane waves:   50798
 k-point   3 :   0.5000 0.5000 0.0000  plane waves:   50752

 maximum and minimum number of plane-waves per node :     12720    12632

 maximum number of plane-waves:     50798
 maximum index in each direction: 
   IXMAX=   16   IYMAX=   16   IZMAX=   42
   IXMIN=  -17   IYMIN=  -17   IZMIN=  -42


 parallel 3D FFT for wavefunctions:
    minimum data exchange during FFTs selected (reduces bandwidth)
 parallel 3D FFT for charge:
    minimum data exchange during FFTs selected (reduces bandwidth)


 total amount of memory used by VASP MPI-rank0    78528. kBytes
=======================================================================

   base      :      30000. kBytes
   nonl-proj :      29343. kBytes
   fftplans  :       3857. kBytes
   grid      :       5885. kBytes
   one-center:        137. kBytes
   wavefun   :       9306. kBytes

     INWAV:  cpu time      0.0001: real time      0.0001
 Broyden mixing: mesh for mixing (old mesh)
   NGX = 33   NGY = 33   NGZ = 85
  (NGX  =108   NGY  =108   NGZ  =256)
  gives a total of  92565 points

 initial charge density was supplied:
 charge density of overlapping atoms calculated
 number of electron     458.0000000 magnetization 
 keeping initial charge density in first step


--------------------------------------------------------------------------------------------------------


 Maximum index for augmentation-charges          334 (set IRDMAX)


--------------------------------------------------------------------------------------------------------


 First call to EWALD:  gamma=   0.154
 Maximum number of real-space cells 4x 4x 2
 Maximum number of reciprocal cells 2x 2x 5

    FEWALD:  cpu time      0.0074: real time      0.0074


--------------------------------------- Iteration      1(   1)  ---------------------------------------


vdW kernel read from vdw_kernel.bindat
  0.0000  0.2424  0.5071  0.7962  1.1119  1.4567  1.8333  2.2446  2.6937  3.1842
  3.7199  4.3049  4.9438  5.6415  6.4036  7.2358  8.1446  9.1372 10.2212 11.4050
 12.6979 14.1099 15.6519 17.3360 19.1751 21.1837 23.3773 25.7729 28.3892 31.2465
 34.3669 37.7748 41.4965 45.5611 50.0000

    POTLOK:  cpu time      0.9579: real time      0.9601
    SETDIJ:  cpu time      0.1333: real time      0.1334
    TRIAL :  cpu time      5.4346: real time      5.5304
    CORREC:  cpu time      0.0013: real time      0.0014
    --------------------------------------------
      LOOP:  cpu time      6.5290: real time      6.6706

 eigenvalue-minimisations  :  2304
 total energy-change (2. order) : 0.4311175E+04  (-0.3069170E+05)
 number of electron     458.0000000 magnetization 
 augmentation part      458.0000000 magnetization 

 DIPCOR: dipole corrections for dipol
 direction  3 min pos     1,
 dipolmoment           0.000000      0.000000     -0.000274 electrons x Angstroem
 Tr[quadrupol]     -6318.707493

 energy correction for charged system         0.000000 eV
 dipol+quadrupol energy correction           -0.000000 eV
 added-field ion interaction          0.002222 eV  (added to PSCEN)


 Free energy of the ion-electron system (eV)
  ---------------------------------------------------
  alpha Z        PSCENC =       907.96632611
  Ewald energy   TEWEN  =    137099.35266163
  -Hartree energ DENC   =   -173198.32155569
  -exchange      EXHF   =         0.00000000
  -V(xc)+E(xc)   XCENC  =      1735.56382173
  PAW double counting   =     32391.11887895   -36187.02304673
  entropy T*S    EENTRO =        -0.02282016
  eigenvalues    EBANDS =     -6985.10075393
  atomic energy  EATOM  =     48547.64153090
  ---------------------------------------------------
  free energy    TOTEN  =      4311.17504281 eV

  energy without entropy =     4311.19786297  energy(sigma->0) =     4311.18645289


--------------------------------------------------------------------------------------------------------




--------------------------------------- Iteration      1(   2)  ---------------------------------------


    TRIAL :  cpu time      2.2425: real time      2.2430
    CORREC:  cpu time      0.0003: real time      0.0003
    --------------------------------------------
      LOOP:  cpu time      2.2564: real time      2.2574

 eigenvalue-minimisations  :  2304
 total energy-change (2. order) :-0.4303287E+04  (-0.4228293E+04)
 number of electron     458.0000000 magnetization 
 augmentation part      458.0000000 magnetization 

 DIPCOR: dipole corrections for dipol
 direction  3 min pos     1,
 dipolmoment           0.000000      0.000000     -0.000274 electrons x Angstroem
 Tr[quadrupol]     -6318.707493

 energy correction for charged system         0.000000 eV
 dipol+quadrupol energy correction           -0.000000 eV
 added-field ion interaction          0.002222 eV  (added to PSCEN)


 Free energy of the ion-electron system (eV)
  ---------------------------------------------------
  alpha Z        PSCENC =       907.96632611
  Ewald energy   TEWEN  =    137099.35266163
  -Hartree energ DENC   =   -173198.32155569
  -exchange      EXHF   =         0.00000000
  -V(xc)+E(xc)   XCENC  =      1735.56382173
  PAW double counting   =     32391.11887895   -36187.02304673
  entropy T*S    EENTRO =        -0.00000000
  eigenvalues    EBANDS =    -11288.41021900
  atomic energy  EATOM  =     48547.64153090
  ---------------------------------------------------
  free energy    TOTEN  =         7.88839790 eV

  energy without entropy =        7.88839790  energy(sigma->0) =        7.88839790


--------------------------------------------------------------------------------------------------------




--------------------------------------- Iteration      1(   3)  ---------------------------------------


    TRIAL :  cpu time      2.3657: real time      2.3661
    CORREC:  cpu time      0.0003: real time      0.0003
    --------------------------------------------
      LOOP:  cpu time      2.3702: real time      2.3806

 eigenvalue-minimisations  :  2304
 total energy-change (2. order) :-0.3137050E+03  (-0.3117555E+03)
 number of electron     458.0000000 magnetization 
 augmentation part      458.0000000 magnetization 

 DIPCOR: dipole corrections for dipol
 direction  3 min pos     1,
 dipolmoment           0.000000      0.000000     -0.000274 electrons x Angstroem
 Tr[quadrupol]     -6318.707493

 energy correction for charged system         0.000000 eV
 dipol+quadrupol energy correction           -0.000000 eV
 added-field ion interaction          0.002222 eV  (added to PSCEN)


 Free energy of the ion-electron system (eV)
  ---------------------------------------------------
  alpha Z        PSCENC =       907.96632611
  Ewald energy   TEWEN  =    137099.35266163
  -Hartree energ DENC   =   -173198.32155569
  -exchange      EXHF   =         0.00000000
  -V(xc)+E(xc)   XCENC  =      1735.56382173
  PAW double counting   =     32391.11887895   -36187.02304673
  entropy T*S    EENTRO =        -0.00000000
  eigenvalues    EBANDS =    -11602.11517423
  atomic energy  EATOM  =     48547.64153090
  ---------------------------------------------------
  free energy    TOTEN  =      -305.81655733 eV

  energy without entropy =     -305.81655733  energy(sigma->0) =     -305.81655733


--------------------------------------------------------------------------------------------------------




--------------------------------------- Iteration      1(   4)  ---------------------------------------


    TRIAL :  cpu time      2.3646: real time      2.3652
    CORREC:  cpu time      0.0003: real time      0.0003
    --------------------------------------------
      LOOP:  cpu time      2.3698: real time      2.3796

 eigenvalue-minimisations  :  2368
 total energy-change (2. order) :-0.5885655E+01  (-0.5878896E+01)
 number of electron     458.0000000 magnetization 
 augmentation part      458.0000000 magnetization 

 DIPCOR: dipole corrections for dipol
 direction  3 min pos     1,
 dipolmoment           0.000000      0.000000     -0.000274 electrons x Angstroem
 Tr[quadrupol]     -6318.707493

 energy correction for charged system         0.000000 eV
 dipol+quadrupol energy correction           -0.000000 eV
 added-field ion interaction          0.002222 eV  (added to PSCEN)


 Free energy of the ion-electron system (eV)
  ---------------------------------------------------
  alpha Z        PSCENC =       907.96632611
  Ewald energy   TEWEN  =    137099.35266163
  -Hartree energ DENC   =   -173198.32155569
  -exchange      EXHF   =         0.00000000
  -V(xc)+E(xc)   XCENC  =      1735.56382173
  PAW double counting   =     32391.11887895   -36187.02304673
  entropy T*S    EENTRO =        -0.00000000
  eigenvalues    EBANDS =    -11608.00082930
  atomic energy  EATOM  =     48547.64153090
  ---------------------------------------------------
  free energy    TOTEN  =      -311.70221240 eV

  energy without entropy =     -311.70221240  energy(sigma->0) =     -311.70221240


--------------------------------------------------------------------------------------------------------




--------------------------------------- Iteration      1(   5)  ---------------------------------------


    TRIAL :  cpu time      2.1388: real time      2.1393
    CORREC:  cpu time      0.0003: real time      0.0003
    CHARGE:  cpu time      0.0734: real time      0.0742
    --------------------------------------------
      LOOP:  cpu time      2.2186: real time      2.2284

 eigenvalue-minimisations  :  2304
 total energy-change (2. order) :-0.7434863E-01  (-0.7434622E-01)
 number of electron     457.9999384 magnetization 
 augmentation part      160.5738900 magnetization 

 DIPCOR: dipole corrections for dipol
 direction  3 min pos     1,
 dipolmoment           0.000000      0.000000     -0.000274 electrons x Angstroem
 Tr[quadrupol]     -6318.707493

 energy correction for charged system         0.000000 eV
 dipol+quadrupol energy correction           -0.000000 eV
 added-field ion interaction          0.002222 eV  (added to PSCEN)


 Free energy of the ion-electron system (eV)
  ---------------------------------------------------
  alpha Z        PSCENC =       907.96632611
  Ewald energy   TEWEN  =    137099.35266163
  -Hartree energ DENC   =   -173198.32155569
  -exchange      EXHF   =         0.00000000
  -V(xc)+E(xc)   XCENC  =      1735.56382173
  PAW double counting   =     32391.11887895   -36187.02304673
  entropy T*S    EENTRO =        -0.00000000
  eigenvalues    EBANDS =    -11608.07517793
  atomic energy  EATOM  =     48547.64153090
  ---------------------------------------------------
  free energy    TOTEN  =      -311.77656103 eV

  energy without entropy =     -311.77656103  energy(sigma->0) =     -311.77656103


--------------------------------------------------------------------------------------------------------




--------------------------------------- Iteration      1(   6)  ---------------------------------------


    POTLOK:  cpu time      0.3248: real time      0.3248
    SETDIJ:  cpu time      0.1839: real time      0.1842
    TRIAL :  cpu time      0.6734: real time      0.6742
    CORREC:  cpu time      0.8158: real time      0.8161
    CHARGE:  cpu time      0.0565: real time      0.0566
    --------------------------------------------
      LOOP:  cpu time      2.0687: real time      2.0701

 eigenvalue-minimisations  :     0
 total energy-change (2. order) : 0.2025963E+03  (-0.1135297E+03)
 number of electron     457.9999268 magnetization 
 augmentation part      157.2121114 magnetization 

 DIPCOR: dipole corrections for dipol
 direction  3 min pos     1,
 dipolmoment           0.000000      0.000000      0.219612 electrons x Angstroem
 Tr[quadrupol]     -6352.294686

 energy correction for charged system         0.000000 eV
 dipol+quadrupol energy correction           -0.002871 eV
 added-field ion interaction         -1.783199 eV  (added to PSCEN)


 Free energy of the ion-electron system (eV)
  ---------------------------------------------------
  alpha Z        PSCENC =       903.96632074
  Ewald energy   TEWEN  =    137099.35266163
  -Hartree energ DENC   =   -177217.20045101
  -exchange      EXHF   =         0.00000000
  -V(xc)+E(xc)   XCENC  =      1872.30072608
  PAW double counting   =     37226.89268813   -40994.93414228
  entropy T*S    EENTRO =        -0.00000000
  eigenvalues    EBANDS =     -7547.19963254
  atomic energy  EATOM  =     48547.64153090
  ---------------------------------------------------
  free energy    TOTEN  =      -109.18029835 eV

  energy without entropy =     -109.18029835  energy(sigma->0) =     -109.18029835


--------------------------------------------------------------------------------------------------------




--------------------------------------- Iteration      1(   7)  ---------------------------------------


    POTLOK:  cpu time      0.3157: real time      0.3157
    SETDIJ:  cpu time      0.1928: real time      0.1929
    TRIAL :  cpu time      0.6017: real time      0.6017
    CORREC:  cpu time      0.7992: real time      0.7994
    CHARGE:  cpu time      0.0552: real time      0.0552
    --------------------------------------------
      LOOP:  cpu time      1.9686: real time      1.9790

 eigenvalue-minimisations  :     0
 total energy-change (2. order) :-0.1140990E+03  (-0.7957050E+01)
 number of electron     457.9999257 magnetization 
 augmentation part      155.2950942 magnetization 

 DIPCOR: dipole corrections for dipol
 direction  3 min pos     1,
 dipolmoment           0.000000      0.000000      0.185714 electrons x Angstroem
 Tr[quadrupol]     -6359.658486

 energy correction for charged system         0.000000 eV
 dipol+quadrupol energy correction           -0.002053 eV
 added-field ion interaction         -1.507957 eV  (added to PSCEN)


 Free energy of the ion-electron system (eV)
  ---------------------------------------------------
  alpha Z        PSCENC =       905.89775367
  Ewald energy   TEWEN  =    137099.35266163
  -Hartree energ DENC   =   -175208.03836815
  -exchange      EXHF   =         0.00000000
  -V(xc)+E(xc)   XCENC  =      1796.38356016
  PAW double counting   =     36010.24047722   -39841.93146466
  entropy T*S    EENTRO =        -0.00000000
  eigenvalues    EBANDS =     -9532.82543741
  atomic energy  EATOM  =     48547.64153090
  ---------------------------------------------------
  free energy    TOTEN  =      -223.27928665 eV

  energy without entropy =     -223.27928665  energy(sigma->0) =     -223.27928665


--------------------------------------------------------------------------------------------------------




--------------------------------------- Iteration      1(   8)  ---------------------------------------


    POTLOK:  cpu time      0.3156: real time      0.3156
    SETDIJ:  cpu time      0.1859: real time      0.1862
    TRIAL :  cpu time      0.6025: real time      0.6025
    CORREC:  cpu time      0.7991: real time      0.7993
    CHARGE:  cpu time      0.0545: real time      0.0545
    --------------------------------------------
      LOOP:  cpu time      1.9714: real time      1.9723

 eigenvalue-minimisations  :     0
 total energy-change (2. order) :-0.7985314E+01  (-0.4957787E+01)
 number of electron     457.9999238 magnetization 
 augmentation part      155.4283861 magnetization 

 DIPCOR: dipole corrections for dipol
 direction  3 min pos     1,
 dipolmoment           0.000000      0.000000      0.106714 electrons x Angstroem
 Tr[quadrupol]     -6358.095824

 energy correction for charged system         0.000000 eV
 dipol+quadrupol energy correction           -0.000678 eV
 added-field ion interaction         -0.866491 eV  (added to PSCEN)


 Free energy of the ion-electron system (eV)
  ---------------------------------------------------
  alpha Z        PSCENC =       906.67216096
  Ewald energy   TEWEN  =    137099.35266163
  -Hartree energ DENC   =   -175157.34183790
  -exchange      EXHF   =         0.00000000
  -V(xc)+E(xc)   XCENC  =      1786.89788762
  PAW double counting   =     35912.31434803   -39675.18582593
  entropy T*S    EENTRO =        -0.00000000
  eigenvalues    EBANDS =     -9651.61552593
  atomic energy  EATOM  =     48547.64153090
  ---------------------------------------------------
  free energy    TOTEN  =      -231.26460063 eV

  energy without entropy =     -231.26460063  energy(sigma->0) =     -231.26460063


--------------------------------------------------------------------------------------------------------




--------------------------------------- Iteration      1(   9)  ---------------------------------------


    POTLOK:  cpu time      0.3124: real time      0.3124
    SETDIJ:  cpu time      0.1861: real time      0.1863
    TRIAL :  cpu time      0.6016: real time      0.6017
    CORREC:  cpu time      0.7976: real time      0.7978
    CHARGE:  cpu time      0.0540: real time      0.0540
    --------------------------------------------
      LOOP:  cpu time      1.9579: real time      1.9664

 eigenvalue-minimisations  :     0
 total energy-change (2. order) :-0.4815655E+01  (-0.1822817E+01)
 number of electron     457.9999239 magnetization 
 augmentation part      155.3971043 magnetization 

 DIPCOR: dipole corrections for dipol
 direction  3 min pos     1,
 dipolmoment           0.000000      0.000000      0.117893 electrons x Angstroem
 Tr[quadrupol]     -6348.623994

 energy correction for charged system         0.000000 eV
 dipol+quadrupol energy correction           -0.000827 eV
 added-field ion interaction         -0.957265 eV  (added to PSCEN)


 Free energy of the ion-electron system (eV)
  ---------------------------------------------------
  alpha Z        PSCENC =       907.32400673
  Ewald energy   TEWEN  =    137099.35266163
  -Hartree energ DENC   =   -174993.15364897
  -exchange      EXHF   =         0.00000000
  -V(xc)+E(xc)   XCENC  =      1786.00270136
  PAW double counting   =     35821.72239037   -39624.72166750
  entropy T*S    EENTRO =        -0.00000000
  eigenvalues    EBANDS =     -9780.24823022
  atomic energy  EATOM  =     48547.64153090
  ---------------------------------------------------
  free energy    TOTEN  =      -236.08025570 eV

  energy without entropy =     -236.08025570  energy(sigma->0) =     -236.08025570


--------------------------------------------------------------------------------------------------------




--------------------------------------- Iteration      1(  10)  ---------------------------------------


    POTLOK:  cpu time      0.3167: real time      0.3167
    SETDIJ:  cpu time      0.1805: real time      0.1805
    TRIAL :  cpu time      0.6000: real time      0.6007
    CORREC:  cpu time      0.7994: real time      0.7996
    CHARGE:  cpu time      0.0547: real time      0.0547
    --------------------------------------------
      LOOP:  cpu time      1.9653: real time      1.9666

 eigenvalue-minimisations  :     0
 total energy-change (2. order) :-0.1857086E+01  (-0.6459307E+00)
 number of electron     457.9999246 magnetization 
 augmentation part      155.3469957 magnetization 

 DIPCOR: dipole corrections for dipol
 direction  3 min pos     1,
 dipolmoment           0.000000      0.000000      0.150023 electrons x Angstroem
 Tr[quadrupol]     -6348.272521

 energy correction for charged system         0.000000 eV
 dipol+quadrupol energy correction           -0.001340 eV
 added-field ion interaction         -1.218151 eV  (added to PSCEN)


 Free energy of the ion-electron system (eV)
  ---------------------------------------------------
  alpha Z        PSCENC =       907.08947552
  Ewald energy   TEWEN  =    137099.35266163
  -Hartree energ DENC   =   -174783.57071252
  -exchange      EXHF   =         0.00000000
  -V(xc)+E(xc)   XCENC  =      1783.84803247
  PAW double counting   =     35708.39865763   -39516.44096526
  entropy T*S    EENTRO =        -0.00000000
  eigenvalues    EBANDS =     -9984.25602220
  atomic energy  EATOM  =     48547.64153090
  ---------------------------------------------------
  free energy    TOTEN  =      -237.93734184 eV

  energy without entropy =     -237.93734184  energy(sigma->0) =     -237.93734184


--------------------------------------------------------------------------------------------------------




--------------------------------------- Iteration      1(  11)  ---------------------------------------


    POTLOK:  cpu time      0.3190: real time      0.3190
    SETDIJ:  cpu time      0.1829: real time      0.1829
    TRIAL :  cpu time      0.6001: real time      0.6004
    CORREC:  cpu time      0.8071: real time      0.8073
    CHARGE:  cpu time      0.0538: real time      0.0538
    --------------------------------------------
      LOOP:  cpu time      1.9672: real time      1.9776

 eigenvalue-minimisations  :     0
 total energy-change (2. order) :-0.6474199E+00  (-0.2548388E+00)
 number of electron     457.9999251 magnetization 
 augmentation part      155.4705417 magnetization 

 DIPCOR: dipole corrections for dipol
 direction  3 min pos     1,
 dipolmoment           0.000000      0.000000      0.144828 electrons x Angstroem
 Tr[quadrupol]     -6349.500781

 energy correction for charged system         0.000000 eV
 dipol+quadrupol energy correction           -0.001249 eV
 added-field ion interaction         -1.175965 eV  (added to PSCEN)


 Free energy of the ion-electron system (eV)
  ---------------------------------------------------
  alpha Z        PSCENC =       906.79946729
  Ewald energy   TEWEN  =    137099.35266163
  -Hartree energ DENC   =   -174719.48115087
  -exchange      EXHF   =         0.00000000
  -V(xc)+E(xc)   XCENC  =      1782.84205441
  PAW double counting   =     35649.79689604   -39448.08436770
  entropy T*S    EENTRO =        -0.00000000
  eigenvalues    EBANDS =    -10057.45185345
  atomic energy  EATOM  =     48547.64153090
  ---------------------------------------------------
  free energy    TOTEN  =      -238.58476176 eV

  energy without entropy =     -238.58476176  energy(sigma->0) =     -238.58476176


--------------------------------------------------------------------------------------------------------




--------------------------------------- Iteration      1(  12)  ---------------------------------------


    POTLOK:  cpu time      0.3139: real time      0.3139
    SETDIJ:  cpu time      0.1826: real time      0.1826
    TRIAL :  cpu time      0.6006: real time      0.6009
    CORREC:  cpu time      0.7916: real time      0.7918
    CHARGE:  cpu time      0.0539: real time      0.0539
    --------------------------------------------
      LOOP:  cpu time      1.9468: real time      1.9575

 eigenvalue-minimisations  :     0
 total energy-change (2. order) :-0.2547850E+00  (-0.9858246E-01)
 number of electron     457.9999252 magnetization 
 augmentation part      155.5996811 magnetization 

 DIPCOR: dipole corrections for dipol
 direction  3 min pos     1,
 dipolmoment           0.000000      0.000000      0.137420 electrons x Angstroem
 Tr[quadrupol]     -6350.521950

 energy correction for charged system         0.000000 eV
 dipol+quadrupol energy correction           -0.001124 eV
 added-field ion interaction         -1.115819 eV  (added to PSCEN)


 Free energy of the ion-electron system (eV)
  ---------------------------------------------------
  alpha Z        PSCENC =       906.78740558
  Ewald energy   TEWEN  =    137099.35266163
  -Hartree energ DENC   =   -174758.26600434
  -exchange      EXHF   =         0.00000000
  -V(xc)+E(xc)   XCENC  =      1783.31127457
  PAW double counting   =     35637.31075597   -39434.38088746
  entropy T*S    EENTRO =        -0.00000000
  eigenvalues    EBANDS =    -10020.59628358
  atomic energy  EATOM  =     48547.64153090
  ---------------------------------------------------
  free energy    TOTEN  =      -238.83954673 eV

  energy without entropy =     -238.83954673  energy(sigma->0) =     -238.83954673


--------------------------------------------------------------------------------------------------------




--------------------------------------- Iteration      1(  13)  ---------------------------------------


    POTLOK:  cpu time      0.3169: real time      0.3169
    SETDIJ:  cpu time      0.1851: real time      0.1851
    TRIAL :  cpu time      0.6008: real time      0.6011
    CORREC:  cpu time      0.8038: real time      0.8040
    CHARGE:  cpu time      0.0540: real time      0.0540
    --------------------------------------------
      LOOP:  cpu time      1.9669: real time      1.9754

 eigenvalue-minimisations  :     0
 total energy-change (2. order) :-0.9858213E-01  (-0.4909978E-01)
 number of electron     457.9999252 magnetization 
 augmentation part      155.6433397 magnetization 

 DIPCOR: dipole corrections for dipol
 direction  3 min pos     1,
 dipolmoment           0.000000      0.000000      0.135684 electrons x Angstroem
 Tr[quadrupol]     -6351.082133

 energy correction for charged system         0.000000 eV
 dipol+quadrupol energy correction           -0.001096 eV
 added-field ion interaction         -1.101718 eV  (added to PSCEN)


 Free energy of the ion-electron system (eV)
  ---------------------------------------------------
  alpha Z        PSCENC =       906.84714217
  Ewald energy   TEWEN  =    137099.35266163
  -Hartree energ DENC   =   -174799.88662717
  -exchange      EXHF   =         0.00000000
  -V(xc)+E(xc)   XCENC  =      1783.75611576
  PAW double counting   =     35636.32216265   -39437.29694449
  entropy T*S    EENTRO =        -0.00000000
  eigenvalues    EBANDS =     -9975.67417030
  atomic energy  EATOM  =     48547.64153090
  ---------------------------------------------------
  free energy    TOTEN  =      -238.93812886 eV

  energy without entropy =     -238.93812886  energy(sigma->0) =     -238.93812886


--------------------------------------------------------------------------------------------------------




--------------------------------------- Iteration      1(  14)  ---------------------------------------


    POTLOK:  cpu time      0.3096: real time      0.3096
    SETDIJ:  cpu time      0.1927: real time      0.1927
    TRIAL :  cpu time      0.5993: real time      0.5998
    CORREC:  cpu time      0.7973: real time      0.7975
    CHARGE:  cpu time      0.0536: real time      0.0536
    --------------------------------------------
      LOOP:  cpu time      1.9573: real time      1.9674

 eigenvalue-minimisations  :     0
 total energy-change (2. order) :-0.4915691E-01  (-0.2333030E-01)
 number of electron     457.9999252 magnetization 
 augmentation part      155.6187717 magnetization 

 DIPCOR: dipole corrections for dipol
 direction  3 min pos     1,
 dipolmoment           0.000000      0.000000      0.137321 electrons x Angstroem
 Tr[quadrupol]     -6351.476299

 energy correction for charged system         0.000000 eV
 dipol+quadrupol energy correction           -0.001123 eV
 added-field ion interaction         -1.115017 eV  (added to PSCEN)


 Free energy of the ion-electron system (eV)
  ---------------------------------------------------
  alpha Z        PSCENC =       906.86291672
  Ewald energy   TEWEN  =    137099.35266163
  -Hartree energ DENC   =   -174819.33978377
  -exchange      EXHF   =         0.00000000
  -V(xc)+E(xc)   XCENC  =      1783.78600743
  PAW double counting   =     35635.39591416   -39438.42765132
  entropy T*S    EENTRO =        -0.00000000
  eigenvalues    EBANDS =     -9954.25888150
  atomic energy  EATOM  =     48547.64153090
  ---------------------------------------------------
  free energy    TOTEN  =      -238.98728577 eV

  energy without entropy =     -238.98728577  energy(sigma->0) =     -238.98728577


--------------------------------------------------------------------------------------------------------




--------------------------------------- Iteration      1(  15)  ---------------------------------------


[...]
    269       6.6287      0.00000
    270       6.6287      0.00000
    271       6.6844      0.00000
    272       6.8027      0.00000
    273       7.0965      0.00000
    274       7.0965      0.00000
    275       7.4044      0.00000
    276       7.7437      0.00000
    277       7.7437      0.00000
    278       7.7487      0.00000
    279       7.7945      0.00000
    280       8.1300      0.00000
    281       8.1334      0.00000
    282       8.1380      0.00000
    283       8.1380      0.00000
    284       8.1455      0.00000
    285       8.1521      0.00000
    286       8.1613      0.00000
    287       8.1628      0.00000
    288       8.2520      0.00000
    289       8.3116      0.00000
    290       8.3208      0.00000
    291       8.3707      0.00000
    292       8.3996      0.00000
    293       8.4573      0.00000
    294       8.5352      0.00000
    295       8.5541      0.00000
    296       8.5970      0.00000
    297       8.6040      0.00000
    298       8.6093      0.00000
    299       8.6110      0.00000
    300       8.6780      0.00000
    301       8.9149      0.00000
    302       8.9295      0.00000
    303       8.9790      0.00000
    304       8.9862      0.00000
    305       9.3514      0.00000
    306       9.3977      0.00000
    307       9.4711      0.00000
    308       9.4837      0.00000
    309       9.5152      0.00000
    310       9.6327      0.00000
    311       9.6617      0.00000
    312       9.6983      0.00000
    313       9.7493      0.00000
    314       9.8110      0.00000
    315       9.8935      0.00000
    316       9.9007      0.00000
    317      10.2044      0.00000
    318      10.2967      0.00000
    319      10.4468      0.00000
    320      10.4655      0.00000


--------------------------------------------------------------------------------------------------------


 soft charge-density along one line, spin component           1
         0         1         2         3         4         5         6         7         8         9
 total charge-density along one line

 pseudopotential strength for first ion, spin component:           1
 10.256  13.637   0.000   0.022   0.000  -0.000  -0.062  -0.000
 13.637  18.133   0.000   0.028   0.000  -0.000  -0.081  -0.000
  0.000   0.000  -4.345  -0.000  -0.000   8.547   0.000   0.000
  0.022   0.028  -0.000  -4.334  -0.000   0.000   8.487   0.000
  0.000   0.000  -0.000  -0.000  -4.345   0.000   0.000   8.547
 -0.000  -0.000   8.547   0.000   0.000 -18.950  -0.000  -0.000
 -0.062  -0.081   0.000   8.487   0.000  -0.000 -18.758  -0.000
 -0.000  -0.000   0.000   0.000   8.547  -0.000  -0.000 -18.950
 total augmentation occupancy for first ion, spin component:           1
  7.067  -3.200   0.000   2.073   0.000  -0.000   0.374  -0.000
 -3.200   1.866   0.000  -1.592   0.000   0.000  -0.225   0.000
  0.000   0.000   0.830   0.000   0.000   0.058   0.000   0.000
  2.073  -1.592   0.000   2.234   0.000   0.000   0.207  -0.000
  0.000   0.000   0.000   0.000   0.830   0.000   0.000   0.058
 -0.000   0.000   0.058   0.000   0.000   0.004   0.000   0.000
  0.374  -0.225   0.000   0.207   0.000   0.000   0.028  -0.000
 -0.000   0.000   0.000  -0.000   0.058   0.000  -0.000   0.004


------------------------ aborting loop because EDIFF is reached ----------------------------------------


    FORLOC:  cpu time      0.0040: real time      0.0040
    FORNL :  cpu time      0.4236: real time      0.4242
    STRESS:  cpu time      1.3343: real time      1.3349
    FORCOR:  cpu time      0.3066: real time      0.3066
    OFIELD:  cpu time      0.0001: real time      0.0001

  FORCE on cell =-STRESS in cart. coord.  units (eV):
  Direction    XX          YY          ZZ          XY          YZ          ZX
  --------------------------------------------------------------------------------------
  Alpha Z   907.96410   907.96410   907.96410
  Ewald  157600.52934157600.52934************     0.00000     0.00000    -0.00000
  Hartree167981.25046167981.25046************    -0.00000    -0.00000    -0.00000
  E(xc)   -2568.28090 -2568.28090 -2568.93585    -0.00000    -0.00000     0.00000
  Local  ************************335150.79319    -0.00000    -0.00000    -0.00000
  n-local -2831.76182 -2832.53786 -2861.93113    -0.00000     0.00000     0.00001
  augment  1084.09200  1084.09200  1074.51281     0.00000    -0.00000    -0.00000
  Kinetic  7519.37034  7521.83000  7536.14663    -0.00000    -0.00000    -0.00001
  Fock        0.00000     0.00000     0.00000     0.00000     0.00000     0.00000
  -------------------------------------------------------------------------------------
  Total      -8.78308    -8.78308    12.21546     0.00000     0.00000     0.00000
  in kB      -9.25903    -9.25903    12.87740     0.00000     0.00000     0.00000
  external pressure =       -1.88 kB  Pullay stress =        0.00 kB


 VOLUME and BASIS-vectors are now :
 -----------------------------------------------------------------------------
  energy-cutoff  :      600.00
  volume of cell :     1519.82
      direct lattice vectors                 reciprocal lattice vectors
     8.440984654  0.000000000  0.000000000     0.118469591  0.000000000  0.000000000
     0.000000000  8.440984654  0.000000000     0.000000000  0.118469591  0.000000000
     0.000000000  0.000000000 21.330738491     0.000000000  0.000000000  0.046880702

  length of vectors
     8.440984654  8.440984654 21.330738491     0.118469591  0.118469591  0.046880702


 FORCES acting on ions:
    Electron-Ion                     Ewald-Force                    Non-Local-Force
 -----------------------------------------------------------------------------------------------
   0.129E-12 0.700E-12 -.833E+03   0.289E-14 0.755E-14 0.806E+03   0.000E+00 0.529E-22 0.272E+02
   0.469E-12 0.485E-12 -.144E+04   0.422E-14 0.266E-14 0.150E+04   0.000E+00 0.000E+00 -.600E+02
   -.643E-13 -.127E+00 0.208E+04   0.560E-13 0.127E+00 -.207E+04   -.132E-21 -.156E-03 -.647E+01
   0.127E+00 0.190E-12 0.208E+04   -.127E+00 0.671E-13 -.207E+04   0.156E-03 -.529E-22 -.647E+01
   -.550E-13 -.845E-12 0.713E+03   -.150E-10 0.150E-10 -.713E+03   0.000E+00 -.538E-23 0.459E+00
   0.459E+00 -.459E+00 0.714E+03   -.455E+00 0.455E+00 -.715E+03   -.277E-02 0.277E-02 0.482E+00
   -.519E-13 -.281E+01 -.643E+03   0.157E-11 0.279E+01 0.643E+03   -.529E-22 0.206E-01 -.107E+00
   0.281E+01 -.380E-12 -.643E+03   -.279E+01 -.151E-11 0.643E+03   -.206E-01 -.265E-22 -.107E+00
   -.233E-13 -.414E-12 -.200E+04   0.444E-12 -.416E-12 0.200E+04   0.000E+00 0.265E-22 0.537E+01
   0.178E+02 -.178E+02 -.198E+04   -.179E+02 0.179E+02 0.198E+04   0.828E-01 -.828E-01 0.547E+01
   -.745E-13 0.127E+00 0.208E+04   -.277E-12 -.127E+00 -.207E+04   -.132E-22 0.156E-03 -.647E+01
   0.121E+00 0.909E-12 0.208E+04   -.119E+00 0.131E-10 -.207E+04   -.157E-02 0.132E-22 -.647E+01
   -.534E-13 0.279E-12 0.714E+03   -.165E-10 0.000E+00 -.715E+03   0.265E-22 -.165E-23 0.417E+00
   0.459E+00 0.459E+00 0.714E+03   -.455E+00 -.455E+00 -.715E+03   -.277E-02 -.277E-02 0.482E+00
   -.427E-13 0.281E+01 -.643E+03   0.304E-11 -.279E+01 0.643E+03   -.529E-22 -.206E-01 -.107E+00
   0.403E+01 0.128E-11 -.636E+03   -.396E+01 0.178E-14 0.636E+03   -.761E-01 0.000E+00 -.236E+00
   -.360E-13 0.107E-11 -.199E+04   -.355E-13 -.995E-13 0.198E+04   0.000E+00 0.000E+00 0.539E+01
   0.178E+02 0.178E+02 -.198E+04   -.179E+02 -.179E+02 0.198E+04   0.828E-01 0.828E-01 0.547E+01
   0.886E-12 -.121E+00 0.208E+04   -.129E-10 0.119E+00 -.207E+04   0.000E+00 0.157E-02 -.647E+01
   -.127E+00 0.205E-12 0.208E+04   0.127E+00 0.471E-13 -.207E+04   -.156E-03 -.529E-22 -.647E+01
   0.849E-12 0.943E-13 0.714E+03   0.145E-11 0.150E-10 -.715E+03   0.000E+00 0.000E+00 0.417E+00
   -.459E+00 -.459E+00 0.714E+03   0.455E+00 0.455E+00 -.715E+03   0.277E-02 0.277E-02 0.482E+00
   0.836E-12 -.403E+01 -.636E+03   -.141E-11 0.396E+01 0.636E+03   0.165E-22 0.761E-01 -.236E+00
   -.281E+01 -.370E-12 -.643E+03   0.279E+01 -.156E-11 0.643E+03   0.206E-01 -.106E-21 -.107E+00
   0.931E-12 -.539E-13 -.199E+04   0.782E-13 -.355E-14 0.198E+04   0.000E+00 0.165E-23 0.539E+01
   -.178E+02 -.178E+02 -.198E+04   0.179E+02 0.179E+02 0.198E+04   -.828E-01 -.828E-01 0.547E+01
   0.899E-12 0.121E+00 0.208E+04   -.131E-10 -.119E+00 -.207E+04   -.397E-22 -.157E-02 -.647E+01
   -.121E+00 0.451E-12 0.208E+04   0.119E+00 0.131E-10 -.207E+04   0.157E-02 -.265E-22 -.647E+01
   0.882E-12 0.162E-11 0.714E+03   -.782E-13 0.355E-14 -.715E+03   0.000E+00 0.000E+00 0.562E+00
   -.459E+00 0.459E+00 0.714E+03   0.455E+00 -.455E+00 -.715E+03   0.277E-02 -.277E-02 0.482E+00
   0.825E-12 0.403E+01 -.636E+03   -.284E-13 -.396E+01 0.636E+03   0.000E+00 -.761E-01 -.236E+00
   -.403E+01 -.155E-11 -.636E+03   0.396E+01 0.000E+00 0.636E+03   0.761E-01 0.000E+00 -.236E+00
   0.910E-12 0.129E-11 -.192E+04   -.426E-13 -.391E-13 0.191E+04   0.165E-23 0.000E+00 0.383E+01
   -.178E+02 0.178E+02 -.198E+04   0.179E+02 -.179E+02 0.198E+04   -.828E-01 0.828E-01 0.547E+01
   -.537E-13 -.398E+00 0.535E+03   0.409E-13 0.392E+00 -.535E+03   0.000E+00 0.840E-02 -.737E-01
   0.398E+00 -.663E-12 0.535E+03   -.392E+00 0.391E-13 -.535E+03   -.840E-02 0.000E+00 -.737E-01
   -.617E-13 -.182E-12 0.156E+04   0.853E-11 -.844E-11 -.156E+04   0.265E-22 0.000E+00 0.355E+01
   0.923E-01 -.923E-01 0.156E+04   -.915E-01 0.915E-01 -.156E+04   -.107E-02 0.107E-02 0.355E+01
   -.883E-13 -.726E+01 -.152E+04   -.871E-12 0.720E+01 0.153E+04   0.265E-22 0.587E-01 -.509E+01
   0.726E+01 -.660E-12 -.152E+04   -.720E+01 0.881E-12 0.153E+04   -.587E-01 0.000E+00 -.509E+01
   -.419E-13 -.726E-12 -.478E+03   -.853E-13 0.639E-13 0.478E+03   0.000E+00 -.662E-23 0.257E+00
   0.253E+01 -.253E+01 -.473E+03   -.251E+01 0.251E+01 0.473E+03   -.111E-01 0.111E-01 0.319E+00
   -.522E-13 0.398E+00 0.535E+03   0.142E-13 -.392E+00 -.535E+03   0.000E+00 -.840E-02 -.737E-01
   0.367E+00 -.101E-12 0.535E+03   -.394E+00 -.764E-11 -.535E+03   0.370E-01 0.265E-22 -.943E-01
   -.437E-13 0.384E-12 0.156E+04   0.845E-11 -.796E-12 -.156E+04   0.000E+00 0.000E+00 0.355E+01
   0.923E-01 0.923E-01 0.156E+04   -.915E-01 -.915E-01 -.156E+04   -.107E-02 -.107E-02 0.355E+01
   -.740E-13 0.726E+01 -.152E+04   -.774E-12 -.720E+01 0.153E+04   -.265E-22 -.587E-01 -.509E+01
   0.231E+02 0.424E-12 -.149E+04   -.228E+02 0.810E-11 0.150E+04   -.309E+00 -.159E-21 -.510E+01
   -.492E-13 -.372E-12 -.473E+03   -.741E-11 0.711E-14 0.473E+03   0.132E-22 0.000E+00 0.268E+00
   0.253E+01 0.253E+01 -.473E+03   -.251E+01 -.251E+01 0.473E+03   -.111E-01 -.111E-01 0.319E+00
   0.340E-12 -.367E+00 0.535E+03   0.764E-11 0.394E+00 -.535E+03   0.529E-22 -.370E-01 -.943E-01
   -.398E+00 -.625E-12 0.535E+03   0.392E+00 0.142E-13 -.535E+03   0.840E-02 -.300E-23 -.737E-01
   0.391E-12 -.620E-12 0.156E+04   0.845E-12 -.846E-11 -.156E+04   0.000E+00 0.132E-22 0.355E+01
   -.923E-01 -.923E-01 0.156E+04   0.915E-01 0.915E-01 -.156E+04   0.107E-02 0.107E-02 0.355E+01
   0.364E-12 -.231E+02 -.149E+04   -.816E-11 0.228E+02 0.150E+04   0.119E-21 0.309E+00 -.510E+01
   -.726E+01 -.492E-12 -.152E+04   0.720E+01 0.924E-12 0.153E+04   0.587E-01 0.000E+00 -.509E+01
   0.329E-12 0.397E-12 -.473E+03   -.711E-14 0.738E-11 0.473E+03   0.000E+00 0.000E+00 0.268E+00
   -.253E+01 -.253E+01 -.473E+03   0.251E+01 0.251E+01 0.473E+03   0.111E-01 0.111E-01 0.319E+00
   0.336E-12 0.367E+00 0.535E+03   0.763E-11 -.394E+00 -.535E+03   -.132E-22 0.370E-01 -.943E-01
   -.367E+00 0.855E-12 0.535E+03   0.394E+00 -.769E-11 -.535E+03   -.370E-01 -.132E-22 -.943E-01
   0.341E-12 0.431E-12 0.156E+04   0.824E-12 -.838E-12 -.156E+04   0.000E+00 -.106E-21 0.355E+01
   -.923E-01 0.923E-01 0.156E+04   0.915E-01 -.915E-01 -.156E+04   0.107E-02 -.107E-02 0.355E+01
   0.334E-12 0.231E+02 -.149E+04   -.820E-11 -.228E+02 0.150E+04   0.529E-22 -.309E+00 -.510E+01
   -.231E+02 -.209E-11 -.149E+04   0.228E+02 0.819E-11 0.150E+04   0.309E+00 0.000E+00 -.510E+01
   0.295E-12 0.127E-11 -.473E+03   -.497E-13 0.426E-13 0.474E+03   -.529E-22 -.794E-22 -.200E+00
   -.253E+01 0.253E+01 -.473E+03   0.251E+01 -.251E+01 0.473E+03   0.111E-01 -.111E-01 0.319E+00
 -----------------------------------------------------------------------------------------------
   0.264E-10 0.556E-11 0.514E+02   0.209E-12 -.586E-13 0.500E-11   0.677E-16 0.711E-16 -.514E+02


 POSITION                                       TOTAL-FORCE (eV/Angst)
 -----------------------------------------------------------------------------------
      4.22049      4.22049     16.33814         0.000000     -0.000000      0.263992
      4.22049      4.22049     17.48496         0.000000      0.000000     -0.175198
      0.00000      6.33074      7.50000         0.000000     -0.000011      0.149586
      2.11025      0.00000      7.50000         0.000011     -0.000000      0.149586
      0.00000      0.00000      9.61025         0.000000      0.000000      0.036033
      2.11025      6.33074      9.61025         0.001651     -0.001651      0.038704
      0.00000      6.33023     11.73368         0.000000     -0.001202      0.028927
      2.11076      0.00000     11.73368         0.001202      0.000000      0.028927
      0.00000      0.00000     13.83822         0.000000      0.000000      0.202356
      2.10905      6.33193     13.83447        -0.011085      0.011085      0.183190
      0.00000      2.11025      7.50000         0.000000      0.000011      0.149586
      2.11025      4.22049      7.50000         0.000644      0.000000      0.149653
      0.00000      4.22049      9.61025         0.000000      0.000000      0.046152
      2.11025      2.11025      9.61025         0.001651      0.001651      0.038704
      0.00000      2.11076     11.73368         0.000000      0.001202      0.028927
      2.11344      4.22049     11.73659        -0.007382     -0.000000      0.037242
      0.00000      4.22049     13.83544         0.000000      0.000000      0.192950
      2.10905      2.10905     13.83447        -0.011085     -0.011085      0.183190
      4.22049      6.33074      7.50000         0.000000     -0.000644      0.149653
      6.33074      0.00000      7.50000        -0.000011      0.000000      0.149586
      4.22049      0.00000      9.61025         0.000000      0.000000      0.046152
      6.33074      6.33074      9.61025        -0.001651     -0.001651      0.038704
      4.22049      6.32754     11.73659         0.000000      0.007382      0.037242
      6.33023      0.00000     11.73368        -0.001202      0.000000      0.028927
      4.22049      0.00000     13.83544         0.000000      0.000000      0.192950
      6.33193      6.33193     13.83447         0.011085      0.011085      0.183190
      4.22049      2.11025      7.50000         0.000000      0.000644      0.149653
      6.33074      4.22049      7.50000        -0.000644      0.000000      0.149653
      4.22049      4.22049      9.61025         0.000000     -0.000000      0.056623
      6.33074      2.11025      9.61025        -0.001651      0.001651      0.038704
      4.22049      2.11344     11.73659         0.000000     -0.007382      0.037242
      6.32754      4.22049     11.73659         0.007382      0.000000      0.037242
      4.22049      4.22049     13.87814         0.000000      0.000000      0.241191
      6.33193      2.10905     13.83447         0.011085     -0.011085      0.183190
      0.00000      6.33074      9.61025         0.000000      0.002456      0.071668
      2.11025      0.00000      9.61025        -0.002456     -0.000000      0.071668
      0.00000      0.00000      7.50000         0.000000      0.000000     -0.561251
      2.11025      6.33074      7.50000        -0.000287      0.000287     -0.561012
      0.00000      6.33258     13.88587         0.000000     -0.001630      0.048710
      2.10840      0.00000     13.88587         0.001630      0.000000      0.048710
      0.00000      0.00000     11.72785         0.000000      0.000000      0.018457
      2.10979      6.33120     11.72890         0.002343     -0.002343      0.009804
      0.00000      2.11025      9.61025         0.000000     -0.002456      0.071668
      2.11025      4.22049      9.61025         0.009852      0.000000      0.080733
      0.00000      4.22049      7.50000         0.000000      0.000000     -0.561147
      2.11025      2.11025      7.50000        -0.000287     -0.000287     -0.561012
      0.00000      2.10840     13.88587         0.000000      0.001630      0.048710
      2.10031      4.22049     13.88381        -0.003024      0.000000      0.035245
      0.00000      4.22049     11.72684         0.000000      0.000000      0.012215
      2.10979      2.10979     11.72890         0.002343      0.002343      0.009804
      4.22049      6.33074      9.61025         0.000000     -0.009852      0.080733
      6.33074      0.00000      9.61025         0.002456     -0.000000      0.071668
      4.22049      0.00000      7.50000         0.000000      0.000000     -0.561147
      6.33074      6.33074      7.50000         0.000287      0.000287     -0.561012
      4.22049      6.34068     13.88381         0.000000      0.003024      0.035245
      6.33258      0.00000     13.88587        -0.001630      0.000000      0.048710
      4.22049      0.00000     11.72684         0.000000      0.000000      0.012215
      6.33120      6.33120     11.72890        -0.002343     -0.002343      0.009804
      4.22049      2.11025      9.61025         0.000000      0.009852      0.080733
      6.33074      4.22049      9.61025        -0.009852      0.000000      0.080733
      4.22049      4.22049      7.50000         0.000000      0.000000     -0.561607
      6.33074      2.11025      7.50000         0.000287     -0.000287     -0.561012
      4.22049      2.10031     13.88381         0.000000     -0.003024      0.035245
      6.34068      4.22049     13.88381         0.003024      0.000000      0.035245
      4.22049      4.22049     11.73684         0.000000     -0.000000      0.009267
      6.33120      2.10979     11.72890        -0.002343      0.002343      0.009804
 -----------------------------------------------------------------------------------
    total drift:                                0.000000      0.000000     -0.009815


--------------------------------------------------------------------------------------------------------



  FREE ENERGIE OF THE ION-ELECTRON SYSTEM (eV)
  ---------------------------------------------------
  free  energy   TOTEN  =      -239.02771638 eV

  energy  without entropy=     -239.02771638  energy(sigma->0) =     -239.02771638



--------------------------------------------------------------------------------------------------------


    POTLOK:  cpu time      0.5059: real time      0.5065


--------------------------------------------------------------------------------------------------------


     LOOP+:  cpu time     62.2123: real time     62.5728
    4ORBIT:  cpu time      0.0000: real time      0.0000

 total amount of memory used by VASP MPI-rank0    78528. kBytes
=======================================================================

   base      :      30000. kBytes
   nonl-proj :      29343. kBytes
   fftplans  :       3857. kBytes
   grid      :       5885. kBytes
   one-center:        137. kBytes
   wavefun   :       9306. kBytes

  
  
 General timing and accounting informations for this job:
 ========================================================
  
                  Total CPU time used (sec):       80.420
                            User time (sec):       78.365
                          System time (sec):        2.055
                         Elapsed time (sec):       85.476
  
                   Maximum memory used (kb):      267160.
                   Average memory used (kb):          N/A
  
                          Minor page faults:        32516
                          Major page faults:           51
                 Voluntary context switches:         7269
