 **********************************************************************
                          MRCC program system
 **********************************************************************
 
                              Written by
     Mihaly Kallay, Peter R. Nagy, David Mester, Laszlo Gyevi-Nagy,
        Jozsef Csoka, P. Bernat Szabo, Zoltan Rolik, Gyula Samu,
     Jozsef Csontos, Bence Hegely, Adam Ganyecz, Istvan Ladjanszki,
       Lorant Szegedy, Bence Ladoczki, Klara Petrov, Mate Farkas,
                    Pal D. Mezei, and Reka A. Horvath
 
        Department of Physical Chemistry and Materials Science
            Budapest University of Technology and Economics
                  Budapest P.O.Box 91, H-1521 Hungary
 
                              www.mrcc.hu
 
                      Release date: March 18, 2022

 ************************ 2023-05-25 21:17:29 *************************
 Executing minp...

 Reading input from MINP...
 
 Input file:
 
calc=DF-CCSD(T)
scftype=rhf
verbosity=3
mem=160GB
symm=off
unit=angs
scfiguess=small
scfmaxit=1000
scfalg=locfit1




    charge=0
core=2

basis=special
aug-cc-pVTZ
aug-cc-pVTZ
bse_CVTZ
aug-cc-pVTZ
aug-cc-pVTZ
aug-cc-pVTZ
aug-cc-pVTZ
aug-cc-pVTZ

basis_sm=special
def2-SVP
def2-SVP
def2-SVP
def2-SVP
def2-SVP
def2-SVP
def2-SVP
def2-SVP

dfbasis_scf=special
def2-QZVPP-RI-JK
def2-QZVPP-RI-JK
def2-QZVPP-RI-JK
def2-QZVPP-RI-JK
def2-QZVPP-RI-JK
def2-QZVPP-RI-JK
def2-QZVPP-RI-JK
def2-QZVPP-RI-JK

dfbasis_cor=special
aug-cc-pVTZ-RI
aug-cc-pVTZ-RI
bse_CVTZ_mp2fit
aug-cc-pVTZ-RI
aug-cc-pVTZ-RI
aug-cc-pVTZ-RI
aug-cc-pVTZ-RI
aug-cc-pVTZ-RI

ecp=special
none
none
none
none
none
none
none
none

unit=angs
geom=xyz
8
C1 O1 Mg1 O5 ECP25
C     0.00000000000    0.00000000000    2.55227197734
O     0.00000000000    0.00000000000    3.69909179200
Mg    0.00000000000    0.00000000000   -0.00772802266
O    -2.12018425659    0.00000000000   -0.00205593177
O     0.00000000000    2.12018425659   -0.00205593177
O     2.12018425659    0.00000000000   -0.00205593177
O     0.00000000000   -2.12018425659   -0.00205593177
O     0.00000000000    0.00000000000   -2.14902768389

ghost=serialno
3-8

 
 
 Checking keyword combinations...
 
 Keywords:
 
 active=none
 agrid=ld0006-ld0590
 agrid_pssp=ld0006-ld0194
 agrid_pssp_sm=ld0006-ld0074
 basis=special
 basis_sm=special
 basopt=off
 bfbasis=none
 bfgsmem=10
 bfgstol=1.0d-3
 bpcompo=0.985
 bpcompv=0.98
 bpdfo=0.985
 bpocc=0.985
 bppdo=0.985
 bppdv=0.98
 bpedo=0.985
 bpedv=0.98
 calc=ccsd(t)
 ccmaxit=50
 ccprog=ccsd
 ccsdalg=dfdirect
 ccsdmkl=seq
 ccsdrest=trf
 ccsdthreads=2
 cctol=6
 charge=0
 cialg=auto
 ciguess=off
 cmpgrp=auto
 comprest=off
 core=2
 corembed=off
 csapprox=off
 cvs=off
 dboc=off
 delocsomofact=
 dendec=cholesky
 dens=0
 dfalg=lineq
 dfbasis_cab=none
 dfbasis_cor=special
 dfbasis_scf=special
 dfbasis_scf_sm=special
 dfintran=drpa
 dft=off
 dhexc=adc(2)
 diag=david
 docc=
 domrad=10.d0
 drpaalg=fit
 dual=off
 dual_df=off
 ecp=special
 edisp=off
 edisp_embed=off
 embed=off
 etemp=300
 epert=none
 eps=
 espcharge=off
 excrad=1.0
 excrad_fin=0.100000000D-02
 fitting=coulomb
 fmm=off
 fmmord=8
 freq=off
 gamma=1.d0
 gauss=spher
 geom=xyz
 gopt=off
 ghost=serialno
 gtol=7
 grdens=off
 gridbatch_cos=2000
 grtol=10
 guido_ct=off
 hamilton=dc
 iface=none
 intalg=auto
 itol=10
 laptol=1.d-2
 lccoporder=trffirst
 lcorthr=normal
 lccrest=off
 lmp2dens=on
 lnoepso=0.d0
 lnoepsv=5e-5
 boysalg=jacobi
 localcc=off
 localcorrsymm=off
 locintrf=disk
 mact=
 maxact=off
 maxdim=100
 maxex=0
 maxmicroit=100
 mcscfiguess=hf
 mem=160gb
 mmprog=
 molden=on
 mpitasks=1
 mulmet=0
 mult=
 nacto=0
 nactv=0
 naf_amp=1.d-2
 naf_cor=off
 naf_scf=off
 nafalg=albe
 naftyp=
 nchol=auto
 ndeps=1e-3
 nstate=1
 nsing=0
 nto=off
 ntrip=0
 occ=
 occri=off
 oniom=off
 oniom_eechg=off
 oniom_pcm=off
 oniom_qcorr=off
 optalg=
 optmaxit=50
 optetol=1e-6
 optex=0
 optgtol=1e-4
 optstol=1e-3
 orblocc=off
 orbloce=off
 orbloco=off
 orblocv=off
 orblocguess=cholesky
 osveps=1e-3
 ovirt=off
 ovltol=1e-7
 ovosnorb=80.0
 pcm=off
 popul=off
 pressure=100000
 pssp=off
 ptfreq=0.0
 ptthreads=2
 qro=off
 qscf=off
 qmmm=off
 redcost_exc=off
 redcost_tddft=off
 refdet=none
 rest=0
 rgrid=log3
 rism=off
 rohfcore=semicanonical
 rohftype=semicanonical
 scfalg=locfit1
 scf_conv=auto
 scfdamp=0.0d0
 scfdamp_mode=off
 scfdamp_end=1000
 scfdamp_dampstep=0.d0
 scfdamp_dtol=0.0d0
 scfdamp_maxfact=0.0d0
 scfdamp_minfact=0.0d0
 scfdiis=on
 scfdiis_dtol=0.0d0
 scfdiis_end=1000
 scfdiis_start=2
 scfdiis_step=1
 scfdiis_watch=off
 scfdiis_wrange=10
 scfdiis_wlimit=5
 scfdiis_delmax=2
 scfdtol=7
 scfext=10
 scfguessdens=
 scfiguess=small
 scfloc=pm
 scflshift=0.20
 scflshift_end=8
 scflshift_dtol=0.0
 scflshift_gaptol=0.20
 scfmaxit=1000
 scftype=rhf
 scftol=6
 scspe=1.d0
 scsph=1.d0
 scsps=1.2d0
 scsps_t=1.2d0
 scspt=0.33333333333333
 scspt_t=0.33333333333333
 scspv=1.d0
 spairtol=1e-4
 sqmprog=
 subminp=top
 symm=0
 talg=occ
 temp=298.15
 test=off
 theodore=off
 tlmo=0.999
 tpao=0.94
 tprint=off
 uncontract=off
 unit=angs
 usedisk=2
 verbosity=3
 wpairtol=0.100000000E-05
 
 Calculating integrals for small-basis SCF...

 ************************ 2023-05-25 21:17:31 *************************
 Executing integ...

 Allocation of 160.0 Gbytes of memory...
 
 
 Number of atoms:                  8
 Charge:                           0
 Number of electrons:             14
 Number of core electrons:         4
 Spin multiplicity:                1
 
                 Cartesian coordinates [bohr]      Atomic mass [AMU]  Z
   1  C     0.00000000    0.00000000    4.82309503    12.000000       6
   2  O     0.00000000    0.00000000    6.99027040    15.994915       8
   3  Mg    0.00000000    0.00000000   -0.01460385     0.000000       0
   4  O    -4.00656758    0.00000000   -0.00388515     0.000000       0
   5  O     0.00000000    4.00656758   -0.00388515     0.000000       0
   6  O     4.00656758    0.00000000   -0.00388515     0.000000       0
   7  O     0.00000000   -4.00656758   -0.00388515     0.000000       0
   8  O     0.00000000    0.00000000   -4.06107376     0.000000       0
 
 This molecule is a prolate symmetric top.
 
 Point group: C4v 
 Computational point group: C1  
 
 Cartesian coordinates in standard orientation [bohr]
   1  C     0.00000000    0.00000000    0.57389841
   2  O     0.00000000    0.00000000    2.74107378
   3  Mg    0.00000000    0.00000000   -4.26380047
   4  O     4.00656758   -0.00000000   -4.25308177
   5  O    -0.00000000   -4.00656758   -4.25308177
   6  O    -4.00656758    0.00000000   -4.25308177
   7  O     0.00000000    4.00656758   -4.25308177
   8  O     0.00000000    0.00000000   -8.31027038
 
 Nuclear repulsion energy [au]:         22.148646010002
 
 
 Basis set information:
 
 Maximum angular momentum: g
 Maximum number of contracted Gaussians:   13
 Maximum number of primitive Gaussians:    16
 Spherical harmonic GTOs are used.
 
 
 Conventional basis set:
 
   1  C  def2-svp [ 7s 4p 1d | 3s 2p 1d ]
   2  O  def2-svp [ 7s 4p 1d | 3s 2p 1d ]
   3  Mg def2-svp [ 10s 7p 1d | 4s 3p 1d ]
   4  O  def2-svp [ 7s 4p 1d | 3s 2p 1d ]
   5  O  def2-svp [ 7s 4p 1d | 3s 2p 1d ]
   6  O  def2-svp [ 7s 4p 1d | 3s 2p 1d ]
   7  O  def2-svp [ 7s 4p 1d | 3s 2p 1d ]
   8  O  def2-svp [ 7s 4p 1d | 3s 2p 1d ]
 
 Basis functions:
            1             2             3             4             5             6             7             8             9            10
    0    1C1s          1C2s          1C3s          1C1pz         1C1py         1C1px         1C2pz         1C2py         1C2px         1C1d-2    
    1    1C1d-1        1C1d0         1C1d+1        1C1d+2        2O1s          2O2s          2O3s          2O1pz         2O1py         2O1px     
    2    2O2pz         2O2py         2O2px         2O1d-2        2O1d-1        2O1d0         2O1d+1        2O1d+2        3Mg1s         3Mg2s     
    3    3Mg3s         3Mg4s         3Mg1pz        3Mg1py        3Mg1px        3Mg2pz        3Mg2py        3Mg2px        3Mg3pz        3Mg3py    
    4    3Mg3px        3Mg1d-2       3Mg1d-1       3Mg1d0        3Mg1d+1       3Mg1d+2       4O1s          4O2s          4O3s          4O1pz     
    5    4O1py         4O1px         4O2pz         4O2py         4O2px         4O1d-2        4O1d-1        4O1d0         4O1d+1        4O1d+2    
    6    5O1s          5O2s          5O3s          5O1pz         5O1py         5O1px         5O2pz         5O2py         5O2px         5O1d-2    
    7    5O1d-1        5O1d0         5O1d+1        5O1d+2        6O1s          6O2s          6O3s          6O1pz         6O1py         6O1px     
    8    6O2pz         6O2py         6O2px         6O1d-2        6O1d-1        6O1d0         6O1d+1        6O1d+2        7O1s          7O2s      
    9    7O3s          7O1pz         7O1py         7O1px         7O2pz         7O2py         7O2px         7O1d-2        7O1d-1        7O1d0     
   10    7O1d+1        7O1d+2        8O1s          8O2s          8O3s          8O1pz         8O1py         8O1px         8O2pz         8O2py     
   11    8O2px         8O1d-2        8O1d-1        8O1d0         8O1d+1        8O1d+2    
 
 Maximum number of basis functions per shell:    9
 Total number of basis functions:    116
 
 
 Fitting basis set for the SCF calculation:
 
   1  C  def2-qzvpp-ri-jk [ 14s 10p 6d 2f 1g | 10s 8p 5d 1f 1g ]
   2  O  def2-qzvpp-ri-jk [ 14s 10p 6d 2f 1g | 10s 8p 4d 2f 1g ]
   3  Mg def2-qzvpp-ri-jk [ 16s 12p 9d 4f 1g | 13s 9p 7d 4f 1g ]
   4  O  def2-qzvpp-ri-jk [ 14s 10p 6d 2f 1g | 10s 8p 4d 2f 1g ]
   5  O  def2-qzvpp-ri-jk [ 14s 10p 6d 2f 1g | 10s 8p 4d 2f 1g ]
   6  O  def2-qzvpp-ri-jk [ 14s 10p 6d 2f 1g | 10s 8p 4d 2f 1g ]
   7  O  def2-qzvpp-ri-jk [ 14s 10p 6d 2f 1g | 10s 8p 4d 2f 1g ]
   8  O  def2-qzvpp-ri-jk [ 14s 10p 6d 2f 1g | 10s 8p 4d 2f 1g ]
 
 Basis functions:
            1             2             3             4             5             6             7             8             9            10
    0    1C1s          1C2s          1C3s          1C4s          1C5s          1C6s          1C7s          1C8s          1C9s          1C10s     
    1    1C1pz         1C1py         1C1px         1C2pz         1C2py         1C2px         1C3pz         1C3py         1C3px         1C4pz     
    2    1C4py         1C4px         1C5pz         1C5py         1C5px         1C6pz         1C6py         1C6px         1C7pz         1C7py     
    3    1C7px         1C8pz         1C8py         1C8px         1C1d-2        1C1d-1        1C1d0         1C1d+1        1C1d+2        1C2d-2    
    4    1C2d-1        1C2d0         1C2d+1        1C2d+2        1C3d-2        1C3d-1        1C3d0         1C3d+1        1C3d+2        1C4d-2    
    5    1C4d-1        1C4d0         1C4d+1        1C4d+2        1C5d-2        1C5d-1        1C5d0         1C5d+1        1C5d+2        1C1f-3    
    6    1C1f-2        1C1f-1        1C1f0         1C1f+1        1C1f+2        1C1f+3        1C1g-4        1C1g-3        1C1g-2        1C1g-1    
    7    1C1g0         1C1g+1        1C1g+2        1C1g+3        1C1g+4        2O1s          2O2s          2O3s          2O4s          2O5s      
    8    2O6s          2O7s          2O8s          2O9s          2O10s         2O1pz         2O1py         2O1px         2O2pz         2O2py     
    9    2O2px         2O3pz         2O3py         2O3px         2O4pz         2O4py         2O4px         2O5pz         2O5py         2O5px     
   10    2O6pz         2O6py         2O6px         2O7pz         2O7py         2O7px         2O8pz         2O8py         2O8px         2O1d-2    
   11    2O1d-1        2O1d0         2O1d+1        2O1d+2        2O2d-2        2O2d-1        2O2d0         2O2d+1        2O2d+2        2O3d-2    
   12    2O3d-1        2O3d0         2O3d+1        2O3d+2        2O4d-2        2O4d-1        2O4d0         2O4d+1        2O4d+2        2O1f-3    
   13    2O1f-2        2O1f-1        2O1f0         2O1f+1        2O1f+2        2O1f+3        2O2f-3        2O2f-2        2O2f-1        2O2f0     
   14    2O2f+1        2O2f+2        2O2f+3        2O1g-4        2O1g-3        2O1g-2        2O1g-1        2O1g0         2O1g+1        2O1g+2    
   15    2O1g+3        2O1g+4        3Mg1s         3Mg2s         3Mg3s         3Mg4s         3Mg5s         3Mg6s         3Mg7s         3Mg8s     
   16    3Mg9s         3Mg10s        3Mg11s        3Mg12s        3Mg13s        3Mg1pz        3Mg1py        3Mg1px        3Mg2pz        3Mg2py    
   17    3Mg2px        3Mg3pz        3Mg3py        3Mg3px        3Mg4pz        3Mg4py        3Mg4px        3Mg5pz        3Mg5py        3Mg5px    
   18    3Mg6pz        3Mg6py        3Mg6px        3Mg7pz        3Mg7py        3Mg7px        3Mg8pz        3Mg8py        3Mg8px        3Mg9pz    
   19    3Mg9py        3Mg9px        3Mg1d-2       3Mg1d-1       3Mg1d0        3Mg1d+1       3Mg1d+2       3Mg2d-2       3Mg2d-1       3Mg2d0    
   20    3Mg2d+1       3Mg2d+2       3Mg3d-2       3Mg3d-1       3Mg3d0        3Mg3d+1       3Mg3d+2       3Mg4d-2       3Mg4d-1       3Mg4d0    
   21    3Mg4d+1       3Mg4d+2       3Mg5d-2       3Mg5d-1       3Mg5d0        3Mg5d+1       3Mg5d+2       3Mg6d-2       3Mg6d-1       3Mg6d0    
   22    3Mg6d+1       3Mg6d+2       3Mg7d-2       3Mg7d-1       3Mg7d0        3Mg7d+1       3Mg7d+2       3Mg1f-3       3Mg1f-2       3Mg1f-1   
   23    3Mg1f0        3Mg1f+1       3Mg1f+2       3Mg1f+3       3Mg2f-3       3Mg2f-2       3Mg2f-1       3Mg2f0        3Mg2f+1       3Mg2f+2   
   24    3Mg2f+3       3Mg3f-3       3Mg3f-2       3Mg3f-1       3Mg3f0        3Mg3f+1       3Mg3f+2       3Mg3f+3       3Mg4f-3       3Mg4f-2   
   25    3Mg4f-1       3Mg4f0        3Mg4f+1       3Mg4f+2       3Mg4f+3       3Mg1g-4       3Mg1g-3       3Mg1g-2       3Mg1g-1       3Mg1g0    
   26    3Mg1g+1       3Mg1g+2       3Mg1g+3       3Mg1g+4       4O1s          4O2s          4O3s          4O4s          4O5s          4O6s      
   27    4O7s          4O8s          4O9s          4O10s         4O1pz         4O1py         4O1px         4O2pz         4O2py         4O2px     
   28    4O3pz         4O3py         4O3px         4O4pz         4O4py         4O4px         4O5pz         4O5py         4O5px         4O6pz     
   29    4O6py         4O6px         4O7pz         4O7py         4O7px         4O8pz         4O8py         4O8px         4O1d-2        4O1d-1    
   30    4O1d0         4O1d+1        4O1d+2        4O2d-2        4O2d-1        4O2d0         4O2d+1        4O2d+2        4O3d-2        4O3d-1    
   31    4O3d0         4O3d+1        4O3d+2        4O4d-2        4O4d-1        4O4d0         4O4d+1        4O4d+2        4O1f-3        4O1f-2    
   32    4O1f-1        4O1f0         4O1f+1        4O1f+2        4O1f+3        4O2f-3        4O2f-2        4O2f-1        4O2f0         4O2f+1    
   33    4O2f+2        4O2f+3        4O1g-4        4O1g-3        4O1g-2        4O1g-1        4O1g0         4O1g+1        4O1g+2        4O1g+3    
   34    4O1g+4        5O1s          5O2s          5O3s          5O4s          5O5s          5O6s          5O7s          5O8s          5O9s      
   35    5O10s         5O1pz         5O1py         5O1px         5O2pz         5O2py         5O2px         5O3pz         5O3py         5O3px     
   36    5O4pz         5O4py         5O4px         5O5pz         5O5py         5O5px         5O6pz         5O6py         5O6px         5O7pz     
   37    5O7py         5O7px         5O8pz         5O8py         5O8px         5O1d-2        5O1d-1        5O1d0         5O1d+1        5O1d+2    
   38    5O2d-2        5O2d-1        5O2d0         5O2d+1        5O2d+2        5O3d-2        5O3d-1        5O3d0         5O3d+1        5O3d+2    
   39    5O4d-2        5O4d-1        5O4d0         5O4d+1        5O4d+2        5O1f-3        5O1f-2        5O1f-1        5O1f0         5O1f+1    
   40    5O1f+2        5O1f+3        5O2f-3        5O2f-2        5O2f-1        5O2f0         5O2f+1        5O2f+2        5O2f+3        5O1g-4    
   41    5O1g-3        5O1g-2        5O1g-1        5O1g0         5O1g+1        5O1g+2        5O1g+3        5O1g+4        6O1s          6O2s      
   42    6O3s          6O4s          6O5s          6O6s          6O7s          6O8s          6O9s          6O10s         6O1pz         6O1py     
   43    6O1px         6O2pz         6O2py         6O2px         6O3pz         6O3py         6O3px         6O4pz         6O4py         6O4px     
   44    6O5pz         6O5py         6O5px         6O6pz         6O6py         6O6px         6O7pz         6O7py         6O7px         6O8pz     
   45    6O8py         6O8px         6O1d-2        6O1d-1        6O1d0         6O1d+1        6O1d+2        6O2d-2        6O2d-1        6O2d0     
   46    6O2d+1        6O2d+2        6O3d-2        6O3d-1        6O3d0         6O3d+1        6O3d+2        6O4d-2        6O4d-1        6O4d0     
   47    6O4d+1        6O4d+2        6O1f-3        6O1f-2        6O1f-1        6O1f0         6O1f+1        6O1f+2        6O1f+3        6O2f-3    
   48    6O2f-2        6O2f-1        6O2f0         6O2f+1        6O2f+2        6O2f+3        6O1g-4        6O1g-3        6O1g-2        6O1g-1    
   49    6O1g0         6O1g+1        6O1g+2        6O1g+3        6O1g+4        7O1s          7O2s          7O3s          7O4s          7O5s      
   50    7O6s          7O7s          7O8s          7O9s          7O10s         7O1pz         7O1py         7O1px         7O2pz         7O2py     
   51    7O2px         7O3pz         7O3py         7O3px         7O4pz         7O4py         7O4px         7O5pz         7O5py         7O5px     
   52    7O6pz         7O6py         7O6px         7O7pz         7O7py         7O7px         7O8pz         7O8py         7O8px         7O1d-2    
   53    7O1d-1        7O1d0         7O1d+1        7O1d+2        7O2d-2        7O2d-1        7O2d0         7O2d+1        7O2d+2        7O3d-2    
   54    7O3d-1        7O3d0         7O3d+1        7O3d+2        7O4d-2        7O4d-1        7O4d0         7O4d+1        7O4d+2        7O1f-3    
   55    7O1f-2        7O1f-1        7O1f0         7O1f+1        7O1f+2        7O1f+3        7O2f-3        7O2f-2        7O2f-1        7O2f0     
   56    7O2f+1        7O2f+2        7O2f+3        7O1g-4        7O1g-3        7O1g-2        7O1g-1        7O1g0         7O1g+1        7O1g+2    
   57    7O1g+3        7O1g+4        8O1s          8O2s          8O3s          8O4s          8O5s          8O6s          8O7s          8O8s      
   58    8O9s          8O10s         8O1pz         8O1py         8O1px         8O2pz         8O2py         8O2px         8O3pz         8O3py     
   59    8O3px         8O4pz         8O4py         8O4px         8O5pz         8O5py         8O5px         8O6pz         8O6py         8O6px     
   60    8O7pz         8O7py         8O7px         8O8pz         8O8py         8O8px         8O1d-2        8O1d-1        8O1d0         8O1d+1    
   61    8O1d+2        8O2d-2        8O2d-1        8O2d0         8O2d+1        8O2d+2        8O3d-2        8O3d-1        8O3d0         8O3d+1    
   62    8O3d+2        8O4d-2        8O4d-1        8O4d0         8O4d+1        8O4d+2        8O1f-3        8O1f-2        8O1f-1        8O1f0     
   63    8O1f+1        8O1f+2        8O1f+3        8O2f-3        8O2f-2        8O2f-1        8O2f0         8O2f+1        8O2f+2        8O2f+3    
   64    8O1g-4        8O1g-3        8O1g-2        8O1g-1        8O1g0         8O1g+1        8O1g+2        8O1g+3        8O1g+4    
 
 Maximum number of basis functions per shell:   35
 Total number of basis functions:    649
 
 
 Initializing the SAD routines for the initial guess...
 Checking the files required for the initial guess...
 Atomic density files have been found for the atoms with the following serial numbers:
  1 2
 Atomic density files have not been found for the atoms with the following serial numbers:
  
 CPU time [min]:     0.117                   Wall time [min]:     0.334
 
 Character table for point group C1:
 
          E  
    A     1
 
 Number of basis functions per irrep:
    A     116
 
 
 Calculation of overlap integrals...
 CPU time [min]:     0.208                   Wall time [min]:     0.383
 
 Calculation of the square root of the overlap matrix...
 Minimum eigenvalue of the overlap matrix: 0.129060E-01
 CPU time [min]:     0.396                   Wall time [min]:     0.420
 
 Calculation of kinetic energy integrals...
 CPU time [min]:     0.485                   Wall time [min]:     0.426
 Calculation of dipole moment integrals...
 CPU time [min]:     0.586                   Wall time [min]:     0.432
 Calculation of nuclear attraction integrals...
 CPU time [min]:     0.591                   Wall time [min]:     0.432
 
 Calculation of prescreening integrals...
 CPU time [min]:     0.661                   Wall time [min]:     0.434
 
 Calculation of two-center Coulomb integrals...
   1% done.
  12% done.
  24% done.
  37% done.
  49% done.
  61% done.
  72% done.
  87% done.
 100% done.
 CPU time [min]:     0.782                   Wall time [min]:     0.438
 
 Cholesky decomposition of the two-center matrix...
 Reciprocal of the condition number:  0.557903E-05
 CPU time [min]:     0.807                   Wall time [min]:     0.438
 
 
 Running small-basis SCF...

 ************************ 2023-05-25 21:17:57 *************************
 Executing scf...

 @scfsetup: integrals calculated directly
            mrcc/integ direct run
 @scfsetup: calculating on full matrices
            not using symmetry adapted basis
 @scfsetup: diis switched on
 @scfsetup: number of steps to extrapolate from  10
 @scfsetup: tolerance in energy deviation    0.100000E-05
            tolerance in density deviation    0.100000E-06
 @scfsetup: maximum number of iterations:1000
 @scfsetup: restricted closed shell hf calc
 @scfsetup: starting scf from superposition of atomic densities
 @scfsetup: occupation set:
            from initial orbitals
 @scfsetup: Parameter-set for SCF acceleration: normal
 @scfsetup: diis runs from iteration:   2
 @scfsetup: diis runs to iteration:1000
 @scfsetup: diis runs in every iteration
 @scfsetup: diiswatch is disabled                   
 @scfsetup: diis dtol criteria to switch on:      0.0000E+00
           (or the iteration number below is reached)
 @scfsetup: static damping scheme
            iteration step criteria to turn damping off: 3
 @scfsetup: dynamic level shifting
            tolarance in HOMO-LUMO gap:  0.200
            tolarance in density deviation:     0.0000E+00
            iteration step criteria to turn level shifting off: 8
 Allocation of 160.0 Gbytes of memory...
 ======================================================================
 ITERATION STEP   1
 CPU time [min]:     0.059                   Wall time [min]:     0.012
 

 SCF control                  : initial
 Damping factor/level shift   : 0.000/0.200
 DIIS [start/end/frequency]   :   2 /*** /  1

 Constructing Fock-matrix...
 
 Pipek-Mezey localization...
 Step  Convergence
   1   1.125173668599
   2   0.705729312528
   3   0.022397045071
   4   0.000028646496
   5   0.000000000405
 CPU time [min]:     0.082                   Wall time [min]:     0.013
 
 Constructing local fitting domains...
 Maximum number of atoms in fitting domains:    8
 Average number of atoms in fitting domains:    3.7
 
 First step of Coulomb + first step of exchange...
 Exchange contribution is evaluated for MOs 1 to 7.
   1% done.
  13% done.
  27% done.
  41% done.
  58% done.
  70% done.
  82% done.
 100% done.
 Fitting and assembly step of exchange...
 CPU time [min]:     0.389                   Wall time [min]:     0.060
 
 Second step of Coulomb...
   1% done.
  13% done.
  27% done.
  41% done.
  58% done.
  70% done.
  82% done.
 100% done.
 CPU time [min]:     0.411                   Wall time [min]:     0.061
 
 Gradient norm:      1.6037E+00
 RMS of [F,P]:                                         0.01819272956439
 RMS of difference density:                            0.00779112315949
 Gap [au]:  0.64045493
 ALPHA OCC:   7
 BETA  OCC:   7
 
 ***HARTREE-FOCK ENERGY IN STEP   1 IS       -112.4048870239552826 [AU]
 ======================================================================
 ITERATION STEP   2
 CPU time [min]:     0.561                   Wall time [min]:     0.067
 

 SCF control                  : diis
 Damping factor/level shift   : 0.000/0.000
 DIIS [start/end/frequency]   :   2 /*** /  1

 Constructing Fock-matrix...
 
 Pipek-Mezey localization...
 Step  Convergence
   1   0.031784438454
   2   0.019857608937
   3   0.000000256661
 CPU time [min]:     0.674                   Wall time [min]:     0.081
 
 Constructing local fitting domains...
 Maximum number of atoms in fitting domains:    8
 Average number of atoms in fitting domains:    3.7
 
 First step of Coulomb + first step of exchange...
 Exchange contribution is evaluated for MOs 1 to 7.
   1% done.
  13% done.
  27% done.
  41% done.
  58% done.
  70% done.
  82% done.
 100% done.
 Fitting and assembly step of exchange...
 CPU time [min]:     0.748                   Wall time [min]:     0.083
 
 Second step of Coulomb...
   1% done.
  13% done.
  27% done.
  41% done.
  58% done.
  70% done.
  82% done.
 100% done.
 CPU time [min]:     0.769                   Wall time [min]:     0.084
 
 Gradient norm:      1.1691E-01
 DIIS is running in this iteration step.
 RMS of [F,P]:                                         0.00226194631295
 RMS of difference density:                            0.00202846878241
 Gap [au]:  0.58921309
 ALPHA OCC:   7
 BETA  OCC:   7
 
 ***HARTREE-FOCK ENERGY IN STEP   2 IS       -112.6341055012377410 [AU]
 
 Step comparison  Energy Drift [au]  DIIS error drift  Gradient drift
        1            2.2922E-01         1.5931E-02       1.4867E+00
        2            1.1263E+02         1.0000E-07       1.4867E+00
 ======================================================================
 ITERATION STEP   3
 CPU time [min]:     0.780                   Wall time [min]:     0.084
 

 SCF control                  : diis
 Damping factor/level shift   : 0.000/0.000
 DIIS [start/end/frequency]   :   2 /*** /  1

 Constructing Fock-matrix...
 
 Pipek-Mezey localization...
 Step  Convergence
   1   0.603208328671
   2   0.119645914543
   3   0.003445023580
   4   0.000000876811
 CPU time [min]:     0.799                   Wall time [min]:     0.085
 
 Constructing local fitting domains...
 Local fitting domains are unchanged.
 
 First step of Coulomb + first step of exchange...
 Exchange contribution is evaluated for MOs 1 to 7.
   1% done.
  13% done.
  27% done.
  41% done.
  58% done.
  70% done.
  82% done.
 100% done.
 Fitting and assembly step of exchange...
 CPU time [min]:     0.866                   Wall time [min]:     0.087
 
 Second step of Coulomb...
   1% done.
  13% done.
  27% done.
  41% done.
  58% done.
  70% done.
  82% done.
 100% done.
 CPU time [min]:     0.887                   Wall time [min]:     0.087
 
 Gradient norm:      3.4999E-02
 DIIS is running in this iteration step.
 RMS of [F,P]:                                         0.00054047961375
 RMS of difference density:                            0.00046221035015
 Gap [au]:  0.60917462
 ALPHA OCC:   7
 BETA  OCC:   7
 
 ***HARTREE-FOCK ENERGY IN STEP   3 IS       -112.6428476127415195 [AU]
 
 Step comparison  Energy Drift [au]  DIIS error drift  Gradient drift
        2            8.7421E-03         1.7215E-03       8.1914E-02
 ======================================================================
 ITERATION STEP   4
 CPU time [min]:     0.897                   Wall time [min]:     0.088
 

 SCF control                  : diis
 Damping factor/level shift   : 0.000/0.000
 DIIS [start/end/frequency]   :   2 /*** /  1

 Constructing Fock-matrix...
 
 Pipek-Mezey localization...
 Step  Convergence
   1   0.091334550007
   2   0.057611630827
   3   0.004111240173
   4   0.000000110431
   5   0.000000000027
   6   0.000000000000
 CPU time [min]:     0.916                   Wall time [min]:     0.088
 
 Constructing local fitting domains...
 Local fitting domains are unchanged.
 
 First step of Coulomb + first step of exchange...
 Exchange contribution is evaluated for MOs 1 to 7.
   1% done.
  13% done.
  27% done.
  41% done.
  58% done.
  70% done.
  82% done.
 100% done.
 Fitting and assembly step of exchange...
 CPU time [min]:     0.983                   Wall time [min]:     0.090
 
 Second step of Coulomb...
   1% done.
  13% done.
  27% done.
  41% done.
  58% done.
  70% done.
  82% done.
 100% done.
 CPU time [min]:     1.003                   Wall time [min]:     0.090
 
 Gradient norm:      6.7320E-03
 DIIS is running in this iteration step.
 RMS of [F,P]:                                         0.00016231978637
 RMS of difference density:                            0.00022474268473
 Gap [au]:  0.60872501
 ALPHA OCC:   7
 BETA  OCC:   7
 
 ***HARTREE-FOCK ENERGY IN STEP   4 IS       -112.6435033998432687 [AU]
 
 Step comparison  Energy Drift [au]  DIIS error drift  Gradient drift
        3            6.5579E-04         3.7816E-04       2.8267E-02
 ======================================================================
 ITERATION STEP   5
 CPU time [min]:     1.023                   Wall time [min]:     0.091
 

 SCF control                  : diis
 Damping factor/level shift   : 0.000/0.000
 DIIS [start/end/frequency]   :   2 /*** /  1

 Constructing Fock-matrix...
 
 Pipek-Mezey localization...
 Step  Convergence
   1   0.284246367878
   2   0.070087724150
   3   0.000872253026
   4   0.000000045757
   5   0.000000000008
   6   0.000000000000
 CPU time [min]:     1.041                   Wall time [min]:     0.092
 
 Constructing local fitting domains...
 Local fitting domains are unchanged.
 
 First step of Coulomb + first step of exchange...
 Exchange contribution is evaluated for MOs 1 to 7.
   1% done.
  13% done.
  27% done.
  41% done.
  58% done.
  70% done.
  82% done.
 100% done.
 Fitting and assembly step of exchange...
 CPU time [min]:     1.109                   Wall time [min]:     0.093
 
 Second step of Coulomb...
   1% done.
  13% done.
  27% done.
  41% done.
  58% done.
  70% done.
  82% done.
 100% done.
 CPU time [min]:     1.129                   Wall time [min]:     0.094
 
 Gradient norm:      5.8770E-03
 DIIS is running in this iteration step.
 RMS of [F,P]:                                         0.00009859914851
 RMS of difference density:                            0.00005762756848
 Gap [au]:  0.60806905
 ALPHA OCC:   7
 BETA  OCC:   7
 
 ***HARTREE-FOCK ENERGY IN STEP   5 IS       -112.6435986050761073 [AU]
 
 Step comparison  Energy Drift [au]  DIIS error drift  Gradient drift
        4            9.5205E-05         6.3721E-05       8.5498E-04
 ======================================================================
 ITERATION STEP   6
 CPU time [min]:     1.138                   Wall time [min]:     0.094
 

 SCF control                  : diis
 Damping factor/level shift   : 0.000/0.000
 DIIS [start/end/frequency]   :   2 /*** /  1

 Constructing Fock-matrix...
 
 Pipek-Mezey localization...
 Step  Convergence
   1   0.562636584583
   2   0.072892998196
   3   0.005933031171
   4   0.000000304815
   5   0.000000000025
   6   0.000000000000
 CPU time [min]:     1.157                   Wall time [min]:     0.095
 
 Constructing local fitting domains...
 Local fitting domains are unchanged.
 
 First step of Coulomb + first step of exchange...
 Exchange contribution is evaluated for MOs 1 to 7.
   1% done.
  13% done.
  27% done.
  41% done.
  58% done.
  70% done.
  82% done.
 100% done.
 Fitting and assembly step of exchange...
 CPU time [min]:     1.225                   Wall time [min]:     0.097
 
 Second step of Coulomb...
   1% done.
  13% done.
  27% done.
  41% done.
  58% done.
  70% done.
  82% done.
 100% done.
 CPU time [min]:     1.246                   Wall time [min]:     0.097
 
 Gradient norm:      7.2521E-04
 DIIS is running in this iteration step.
 RMS of [F,P]:                                         0.00001649902648
 RMS of difference density:                            0.00002798336995
 Gap [au]:  0.60817975
 ALPHA OCC:   7
 BETA  OCC:   7
 
 ***HARTREE-FOCK ENERGY IN STEP   6 IS       -112.6436113555492113 [AU]
 
 Step comparison  Energy Drift [au]  DIIS error drift  Gradient drift
        5            1.2750E-05         8.2100E-05       5.1518E-03
 ======================================================================
 ITERATION STEP   7
 CPU time [min]:     1.255                   Wall time [min]:     0.098
 

 SCF control                  : diis
 Damping factor/level shift   : 0.000/0.000
 DIIS [start/end/frequency]   :   2 /*** /  1

 Constructing Fock-matrix...
 
 Pipek-Mezey localization...
 Step  Convergence
   1   0.547897001141
   2   0.050331979014
   3   0.000733299631
   4   0.000000023765
   5   0.000000000004
   6   0.000000000000
 CPU time [min]:     1.274                   Wall time [min]:     0.098
 
 Constructing local fitting domains...
 Local fitting domains are unchanged.
 
 First step of Coulomb + first step of exchange...
 Exchange contribution is evaluated for MOs 1 to 7.
   1% done.
  13% done.
  27% done.
  41% done.
  58% done.
  70% done.
  82% done.
 100% done.
 Fitting and assembly step of exchange...
 CPU time [min]:     1.341                   Wall time [min]:     0.100
 
 Second step of Coulomb...
   1% done.
  13% done.
  27% done.
  41% done.
  58% done.
  70% done.
  82% done.
 100% done.
 CPU time [min]:     1.362                   Wall time [min]:     0.101
 
 Gradient norm:      2.0679E-04
 DIIS is running in this iteration step.
 RMS of [F,P]:                                         0.00000350200767
 RMS of difference density:                            0.00000414488556
 Gap [au]:  0.60812988
 ALPHA OCC:   7
 BETA  OCC:   7
 
 ***HARTREE-FOCK ENERGY IN STEP   7 IS       -112.6436124987752692 [AU]
 
 Step comparison  Energy Drift [au]  DIIS error drift  Gradient drift
        6            1.1432E-06         1.2997E-05       5.1841E-04
 ======================================================================
 ITERATION STEP   8
 CPU time [min]:     1.371                   Wall time [min]:     0.101
 

 SCF control                  : diis
 Damping factor/level shift   : 0.000/0.000
 DIIS [start/end/frequency]   :   2 /*** /  1

 Constructing Fock-matrix...
 
 Pipek-Mezey localization...
 Step  Convergence
   1   0.551237246533
   2   0.062680505427
   3   0.000004129731
   4   0.000000000210
   5   0.000000000000
 CPU time [min]:     1.391                   Wall time [min]:     0.101
 
 Constructing local fitting domains...
 Local fitting domains are unchanged.
 
 First step of Coulomb + first step of exchange...
 Exchange contribution is evaluated for MOs 1 to 7.
   1% done.
  13% done.
  27% done.
  41% done.
  58% done.
  70% done.
  82% done.
 100% done.
 Fitting and assembly step of exchange...
 CPU time [min]:     1.459                   Wall time [min]:     0.103
 
 Second step of Coulomb...
   1% done.
  13% done.
  27% done.
  41% done.
  58% done.
  70% done.
  82% done.
 100% done.
 CPU time [min]:     1.479                   Wall time [min]:     0.104
 
 Gradient norm:      2.4245E-05
 DIIS is running in this iteration step.
 RMS of [F,P]:                                         0.00000044259140
 RMS of difference density:                            0.00000053542484
 Gap [au]:  0.60813641
 ALPHA OCC:   7
 BETA  OCC:   7
 
 ***HARTREE-FOCK ENERGY IN STEP   8 IS       -112.6436125291544101 [AU]
 
 Step comparison  Energy Drift [au]  DIIS error drift  Gradient drift
        7            3.0379E-08         3.0594E-06       1.8255E-04
 ======================================================================
 ITERATION STEP   9
 CPU time [min]:     1.488                   Wall time [min]:     0.104
 

 SCF control                  : diis
 Damping factor/level shift   : 0.000/0.000
 DIIS [start/end/frequency]   :   2 /*** /  1

 Constructing Fock-matrix...
 
 Pipek-Mezey localization...
 Step  Convergence
   1   0.605737663728
   2   0.103628455380
   3   0.003331866562
   4   0.000000409196
   5   0.000000000015
   6   0.000000000000
 CPU time [min]:     1.507                   Wall time [min]:     0.105
 
 Constructing local fitting domains...
 Local fitting domains are unchanged.
 
 First step of Coulomb + first step of exchange...
 Exchange contribution is evaluated for MOs 1 to 7.
   1% done.
  13% done.
  27% done.
  41% done.
  58% done.
  70% done.
  82% done.
 100% done.
 Fitting and assembly step of exchange...
 CPU time [min]:     1.575                   Wall time [min]:     0.107
 
 Second step of Coulomb...
   1% done.
  13% done.
  27% done.
  41% done.
  58% done.
  70% done.
  82% done.
 100% done.
 CPU time [min]:     1.595                   Wall time [min]:     0.107
 
 Gradient norm:      2.4794E-06
 DIIS is running in this iteration step.
 RMS of [F,P]:                                         0.00000005926066
 RMS of difference density:                            0.00000008745685
 Gap [au]:  0.60813531
 ALPHA OCC:   7
 BETA  OCC:   7
 
 ***HARTREE-FOCK ENERGY IN STEP   9 IS       -112.6436125296942095 [AU]
 
 Step comparison  Energy Drift [au]  DIIS error drift  Gradient drift
        8            5.3980E-10         3.8333E-07       2.1766E-05
 
 The SCF iteration has converged.
 An extra iteration will be performed to calculate accurate SCF energy.
 
 ======================================================================
 ITERATION STEP  10
 CPU time [min]:     1.605                   Wall time [min]:     0.107
 

 SCF control                  : diis
 Damping factor/level shift   : 0.000/0.000
 DIIS [start/end/frequency]   :   2 /*** /  1

 Constructing Fock-matrix...
 
 Pipek-Mezey localization...
 Step  Convergence
   1   0.640377234506
   2   0.127573088781
   3   0.008850036435
   4   0.000006271802
   5   0.000000001430
   6   0.000000000000
 CPU time [min]:     1.624                   Wall time [min]:     0.108
 
 Constructing local fitting domains...
 Maximum number of atoms in fitting domains:    8
 Average number of atoms in fitting domains:    7.9
 
 First step of Coulomb + first step of exchange...
 Exchange contribution is evaluated for MOs 1 to 7.
   1% done.
  13% done.
  27% done.
  41% done.
  58% done.
  70% done.
  82% done.
 100% done.
 Fitting and assembly step of exchange...
 CPU time [min]:     1.708                   Wall time [min]:     0.110
 
 Second step of Coulomb...
   1% done.
  13% done.
  27% done.
  41% done.
  58% done.
  70% done.
  82% done.
 100% done.
 CPU time [min]:     1.728                   Wall time [min]:     0.111
 
 Gradient norm:      2.4641E-05
 RMS of [F,P]:                                         0.00000032124498
 RMS of difference density:                            0.00000028139196
 Gap [au]:  0.60813591
 ALPHA OCC:   7
 BETA  OCC:   7
 
 ***HARTREE-FOCK ENERGY IN STEP  10 IS       -112.6436154274014569 [AU]
 
 Step comparison  Energy Drift [au]  DIIS error drift  Gradient drift
        9            2.8977E-06        -2.6198E-07      -2.2162E-05
 Warning! The DIIS error goes uphill (with respect to previous step).
 Warning! The DIIS error goes uphill (with respect to step   9 ).
 Warning! The gradient goes uphill (with respect to previous step).
 Warning! The gradient goes uphill (with respect to step   9 ).
 ======================================================================
 
 SUCCESS...
 THE SCF ITERATION HAS CONVERGED!
 
                   A   
 FINAL ALPHA OCC:   7
 FINAL BETA  OCC:   7
 
 ***FINAL HARTREE-FOCK ENERGY:       -112.6436154274014569 [AU]
 
 Orbital energies [au]:
      Irrep         Alpha          Beta
    1   A        -20.668591     -20.668591
    2   A        -11.378998     -11.378998
    3   A         -1.497480      -1.497480
    4   A         -0.796901      -0.796901
    5   A         -0.635925      -0.635925
    6   A         -0.635925      -0.635925
    7   A         -0.554006      -0.554006
 
    8   A          0.054130       0.054130
    9   A          0.099632       0.099632
   10   A          0.099632       0.099632
   11   A          0.153023       0.153023
   12   A          0.167033       0.167033
   13   A          0.167033       0.167033
   14   A          0.217524       0.217524
   15   A          0.290754       0.290754
   16   A          0.330559       0.330559
   17   A          0.352580       0.352580
   18   A          0.393327       0.393327
   19   A          0.393327       0.393327
   20   A          0.434794       0.434794
   21   A          0.498209       0.498209
   22   A          0.498209       0.498209
   23   A          0.563969       0.563969
   24   A          0.563969       0.563969
   25   A          0.564069       0.564069
   26   A          0.611584       0.611584
   27   A          0.703370       0.703370
   28   A          0.703370       0.703370
   29   A          0.707837       0.707837
   30   A          0.764416       0.764416
   31   A          0.784234       0.784234
   32   A          0.784234       0.784234
   33   A          0.787636       0.787636
   34   A          0.793181       0.793181
   35   A          0.826649       0.826649
   36   A          0.883546       0.883546
   37   A          0.883546       0.883546
   38   A          0.887510       0.887510
   39   A          0.924731       0.924731
   40   A          0.964735       0.964735
   41   A          1.001071       1.001071
   42   A          1.001071       1.001071
   43   A          1.022739       1.022739
   44   A          1.059701       1.059701
   45   A          1.082717       1.082717
   46   A          1.127261       1.127261
   47   A          1.127261       1.127261
   48   A          1.180890       1.180890
   49   A          1.307088       1.307088
   50   A          1.307088       1.307088
   51   A          1.661265       1.661265
   52   A          1.890802       1.890802
   53   A          1.893234       1.893234
   54   A          1.963895       1.963895
   55   A          1.963895       1.963895
   56   A          2.234613       2.234613
   57   A          2.286079       2.286079
   58   A          2.286079       2.286079
   59   A          2.368948       2.368948
   60   A          2.383720       2.383720
   61   A          2.738400       2.738400
   62   A          2.959101       2.959101
   63   A          2.960254       2.960254
   64   A          3.273699       3.273699
   65   A          3.533182       3.533182
   66   A          3.533182       3.533182
   67   A          4.009478       4.009478
   68   A          4.200578       4.200578
   69   A          4.200586       4.200586
   70   A          4.200613       4.200613
   71   A          4.200613       4.200613
   72   A          4.200802       4.200802
   73   A          4.200857       4.200857
   74   A          4.200937       4.200937
   75   A          4.200937       4.200937
   76   A          4.201002       4.201002
   77   A          4.201053       4.201053
   78   A          4.201073       4.201073
   79   A          4.201623       4.201623
   80   A          4.201623       4.201623
   81   A          4.207957       4.207957
   82   A          4.207957       4.207957
   83   A          4.210873       4.210873
   84   A          4.249481       4.249481
   85   A          4.252186       4.252186
   86   A          4.267614       4.267614
   87   A          4.267614       4.267614
   88   A          4.278644       4.278644
   89   A          4.292984       4.292984
   90   A          4.310904       4.310904
   91   A          4.310904       4.310904
   92   A          4.318528       4.318528
   93   A          5.318326       5.318326
   94   A          5.355793       5.355793
   95   A          5.355793       5.355793
   96   A          5.421523       5.421523
   97   A          5.428717       5.428717
   98   A          5.428717       5.428717
   99   A          5.434681       5.434681
  100   A          5.447802       5.447802
  101   A          5.558886       5.558886
  102   A          5.558886       5.558886
  103   A          5.568618       5.568618
  104   A          5.589396       5.589396
  105   A          5.589396       5.589396
  106   A          5.639797       5.639797
  107   A          5.693131       5.693131
  108   A          9.028186       9.028186
  109   A          9.048292       9.048292
  110   A          9.048292       9.048292
  111   A         34.415002      34.415002
  112   A         34.415002      34.415002
  113   A         34.485658      34.485658
  114   A         34.588097      34.588097
  115   A         34.600699      34.600699
  116   A         74.835895      74.835895
 
 RETURNING FROM SCF ALGORITHM
 ======================================================================

 ************************ 2023-05-25 21:18:04 *************************
 Executing integ...

 Allocation of 160.0 Gbytes of memory...
 
 
 Number of atoms:                  8
 Charge:                           0
 Number of electrons:             14
 Number of core electrons:         4
 Spin multiplicity:                1
 
                 Cartesian coordinates [bohr]      Atomic mass [AMU]  Z
   1  C     0.00000000    0.00000000    4.82309503    12.000000       6
   2  O     0.00000000    0.00000000    6.99027040    15.994915       8
   3  Mg    0.00000000    0.00000000   -0.01460385     0.000000       0
   4  O    -4.00656758    0.00000000   -0.00388515     0.000000       0
   5  O     0.00000000    4.00656758   -0.00388515     0.000000       0
   6  O     4.00656758    0.00000000   -0.00388515     0.000000       0
   7  O     0.00000000   -4.00656758   -0.00388515     0.000000       0
   8  O     0.00000000    0.00000000   -4.06107376     0.000000       0
 
 This molecule is a prolate symmetric top.
 
 Point group: C4v 
 Computational point group: C1  
 
 Cartesian coordinates in standard orientation [bohr]
   1  C     0.00000000    0.00000000    0.57389841
   2  O     0.00000000    0.00000000    2.74107378
   3  Mg    0.00000000    0.00000000   -4.26380047
   4  O     4.00656758   -0.00000000   -4.25308177
   5  O    -0.00000000   -4.00656758   -4.25308177
   6  O    -4.00656758    0.00000000   -4.25308177
   7  O     0.00000000    4.00656758   -4.25308177
   8  O     0.00000000    0.00000000   -8.31027038
 
 Nuclear repulsion energy [au]:         22.148646010002
 
 
 Basis set information:
 
 Maximum angular momentum: g
 Maximum number of contracted Gaussians:   14
 Maximum number of primitive Gaussians:    17
 Spherical harmonic GTOs are used.
 
 
 Conventional basis set:
 
   1  C  aug-cc-pvtz [ 11s 6p 3d 2f | 5s 4p 3d 2f ]
   2  O  aug-cc-pvtz [ 11s 6p 3d 2f | 5s 4p 3d 2f ]
   3  Mg bse_cvtz [ 17s 12p 4d 2f | 7s 6p 4d 2f ]
   4  O  aug-cc-pvtz [ 11s 6p 3d 2f | 5s 4p 3d 2f ]
   5  O  aug-cc-pvtz [ 11s 6p 3d 2f | 5s 4p 3d 2f ]
   6  O  aug-cc-pvtz [ 11s 6p 3d 2f | 5s 4p 3d 2f ]
   7  O  aug-cc-pvtz [ 11s 6p 3d 2f | 5s 4p 3d 2f ]
   8  O  aug-cc-pvtz [ 11s 6p 3d 2f | 5s 4p 3d 2f ]
 
 Basis functions:
            1             2             3             4             5             6             7             8             9            10
    0    1C1s          1C2s          1C3s          1C4s          1C5s          1C1pz         1C1py         1C1px         1C2pz         1C2py     
    1    1C2px         1C3pz         1C3py         1C3px         1C4pz         1C4py         1C4px         1C1d-2        1C1d-1        1C1d0     
    2    1C1d+1        1C1d+2        1C2d-2        1C2d-1        1C2d0         1C2d+1        1C2d+2        1C3d-2        1C3d-1        1C3d0     
    3    1C3d+1        1C3d+2        1C1f-3        1C1f-2        1C1f-1        1C1f0         1C1f+1        1C1f+2        1C1f+3        1C2f-3    
    4    1C2f-2        1C2f-1        1C2f0         1C2f+1        1C2f+2        1C2f+3        2O1s          2O2s          2O3s          2O4s      
    5    2O5s          2O1pz         2O1py         2O1px         2O2pz         2O2py         2O2px         2O3pz         2O3py         2O3px     
    6    2O4pz         2O4py         2O4px         2O1d-2        2O1d-1        2O1d0         2O1d+1        2O1d+2        2O2d-2        2O2d-1    
    7    2O2d0         2O2d+1        2O2d+2        2O3d-2        2O3d-1        2O3d0         2O3d+1        2O3d+2        2O1f-3        2O1f-2    
    8    2O1f-1        2O1f0         2O1f+1        2O1f+2        2O1f+3        2O2f-3        2O2f-2        2O2f-1        2O2f0         2O2f+1    
    9    2O2f+2        2O2f+3        3Mg1s         3Mg2s         3Mg3s         3Mg4s         3Mg5s         3Mg6s         3Mg7s         3Mg1pz    
   10    3Mg1py        3Mg1px        3Mg2pz        3Mg2py        3Mg2px        3Mg3pz        3Mg3py        3Mg3px        3Mg4pz        3Mg4py    
   11    3Mg4px        3Mg5pz        3Mg5py        3Mg5px        3Mg6pz        3Mg6py        3Mg6px        3Mg1d-2       3Mg1d-1       3Mg1d0    
   12    3Mg1d+1       3Mg1d+2       3Mg2d-2       3Mg2d-1       3Mg2d0        3Mg2d+1       3Mg2d+2       3Mg3d-2       3Mg3d-1       3Mg3d0    
   13    3Mg3d+1       3Mg3d+2       3Mg4d-2       3Mg4d-1       3Mg4d0        3Mg4d+1       3Mg4d+2       3Mg1f-3       3Mg1f-2       3Mg1f-1   
   14    3Mg1f0        3Mg1f+1       3Mg1f+2       3Mg1f+3       3Mg2f-3       3Mg2f-2       3Mg2f-1       3Mg2f0        3Mg2f+1       3Mg2f+2   
   15    3Mg2f+3       4O1s          4O2s          4O3s          4O4s          4O5s          4O1pz         4O1py         4O1px         4O2pz     
   16    4O2py         4O2px         4O3pz         4O3py         4O3px         4O4pz         4O4py         4O4px         4O1d-2        4O1d-1    
   17    4O1d0         4O1d+1        4O1d+2        4O2d-2        4O2d-1        4O2d0         4O2d+1        4O2d+2        4O3d-2        4O3d-1    
   18    4O3d0         4O3d+1        4O3d+2        4O1f-3        4O1f-2        4O1f-1        4O1f0         4O1f+1        4O1f+2        4O1f+3    
   19    4O2f-3        4O2f-2        4O2f-1        4O2f0         4O2f+1        4O2f+2        4O2f+3        5O1s          5O2s          5O3s      
   20    5O4s          5O5s          5O1pz         5O1py         5O1px         5O2pz         5O2py         5O2px         5O3pz         5O3py     
   21    5O3px         5O4pz         5O4py         5O4px         5O1d-2        5O1d-1        5O1d0         5O1d+1        5O1d+2        5O2d-2    
   22    5O2d-1        5O2d0         5O2d+1        5O2d+2        5O3d-2        5O3d-1        5O3d0         5O3d+1        5O3d+2        5O1f-3    
   23    5O1f-2        5O1f-1        5O1f0         5O1f+1        5O1f+2        5O1f+3        5O2f-3        5O2f-2        5O2f-1        5O2f0     
   24    5O2f+1        5O2f+2        5O2f+3        6O1s          6O2s          6O3s          6O4s          6O5s          6O1pz         6O1py     
   25    6O1px         6O2pz         6O2py         6O2px         6O3pz         6O3py         6O3px         6O4pz         6O4py         6O4px     
   26    6O1d-2        6O1d-1        6O1d0         6O1d+1        6O1d+2        6O2d-2        6O2d-1        6O2d0         6O2d+1        6O2d+2    
   27    6O3d-2        6O3d-1        6O3d0         6O3d+1        6O3d+2        6O1f-3        6O1f-2        6O1f-1        6O1f0         6O1f+1    
   28    6O1f+2        6O1f+3        6O2f-3        6O2f-2        6O2f-1        6O2f0         6O2f+1        6O2f+2        6O2f+3        7O1s      
   29    7O2s          7O3s          7O4s          7O5s          7O1pz         7O1py         7O1px         7O2pz         7O2py         7O2px     
   30    7O3pz         7O3py         7O3px         7O4pz         7O4py         7O4px         7O1d-2        7O1d-1        7O1d0         7O1d+1    
   31    7O1d+2        7O2d-2        7O2d-1        7O2d0         7O2d+1        7O2d+2        7O3d-2        7O3d-1        7O3d0         7O3d+1    
   32    7O3d+2        7O1f-3        7O1f-2        7O1f-1        7O1f0         7O1f+1        7O1f+2        7O1f+3        7O2f-3        7O2f-2    
   33    7O2f-1        7O2f0         7O2f+1        7O2f+2        7O2f+3        8O1s          8O2s          8O3s          8O4s          8O5s      
   34    8O1pz         8O1py         8O1px         8O2pz         8O2py         8O2px         8O3pz         8O3py         8O3px         8O4pz     
   35    8O4py         8O4px         8O1d-2        8O1d-1        8O1d0         8O1d+1        8O1d+2        8O2d-2        8O2d-1        8O2d0     
   36    8O2d+1        8O2d+2        8O3d-2        8O3d-1        8O3d0         8O3d+1        8O3d+2        8O1f-3        8O1f-2        8O1f-1    
   37    8O1f0         8O1f+1        8O1f+2        8O1f+3        8O2f-3        8O2f-2        8O2f-1        8O2f0         8O2f+1        8O2f+2    
   38    8O2f+3    
 
 Maximum number of basis functions per shell:   20
 Total number of basis functions:    381
 
 
 Fitting basis set for the SCF calculation:
 
   1  C  def2-qzvpp-ri-jk [ 14s 10p 6d 2f 1g | 10s 8p 5d 1f 1g ]
   2  O  def2-qzvpp-ri-jk [ 14s 10p 6d 2f 1g | 10s 8p 4d 2f 1g ]
   3  Mg def2-qzvpp-ri-jk [ 16s 12p 9d 4f 1g | 13s 9p 7d 4f 1g ]
   4  O  def2-qzvpp-ri-jk [ 14s 10p 6d 2f 1g | 10s 8p 4d 2f 1g ]
   5  O  def2-qzvpp-ri-jk [ 14s 10p 6d 2f 1g | 10s 8p 4d 2f 1g ]
   6  O  def2-qzvpp-ri-jk [ 14s 10p 6d 2f 1g | 10s 8p 4d 2f 1g ]
   7  O  def2-qzvpp-ri-jk [ 14s 10p 6d 2f 1g | 10s 8p 4d 2f 1g ]
   8  O  def2-qzvpp-ri-jk [ 14s 10p 6d 2f 1g | 10s 8p 4d 2f 1g ]
 
 Basis functions:
            1             2             3             4             5             6             7             8             9            10
    0    1C1s          1C2s          1C3s          1C4s          1C5s          1C6s          1C7s          1C8s          1C9s          1C10s     
    1    1C1pz         1C1py         1C1px         1C2pz         1C2py         1C2px         1C3pz         1C3py         1C3px         1C4pz     
    2    1C4py         1C4px         1C5pz         1C5py         1C5px         1C6pz         1C6py         1C6px         1C7pz         1C7py     
    3    1C7px         1C8pz         1C8py         1C8px         1C1d-2        1C1d-1        1C1d0         1C1d+1        1C1d+2        1C2d-2    
    4    1C2d-1        1C2d0         1C2d+1        1C2d+2        1C3d-2        1C3d-1        1C3d0         1C3d+1        1C3d+2        1C4d-2    
    5    1C4d-1        1C4d0         1C4d+1        1C4d+2        1C5d-2        1C5d-1        1C5d0         1C5d+1        1C5d+2        1C1f-3    
    6    1C1f-2        1C1f-1        1C1f0         1C1f+1        1C1f+2        1C1f+3        1C1g-4        1C1g-3        1C1g-2        1C1g-1    
    7    1C1g0         1C1g+1        1C1g+2        1C1g+3        1C1g+4        2O1s          2O2s          2O3s          2O4s          2O5s      
    8    2O6s          2O7s          2O8s          2O9s          2O10s         2O1pz         2O1py         2O1px         2O2pz         2O2py     
    9    2O2px         2O3pz         2O3py         2O3px         2O4pz         2O4py         2O4px         2O5pz         2O5py         2O5px     
   10    2O6pz         2O6py         2O6px         2O7pz         2O7py         2O7px         2O8pz         2O8py         2O8px         2O1d-2    
   11    2O1d-1        2O1d0         2O1d+1        2O1d+2        2O2d-2        2O2d-1        2O2d0         2O2d+1        2O2d+2        2O3d-2    
   12    2O3d-1        2O3d0         2O3d+1        2O3d+2        2O4d-2        2O4d-1        2O4d0         2O4d+1        2O4d+2        2O1f-3    
   13    2O1f-2        2O1f-1        2O1f0         2O1f+1        2O1f+2        2O1f+3        2O2f-3        2O2f-2        2O2f-1        2O2f0     
   14    2O2f+1        2O2f+2        2O2f+3        2O1g-4        2O1g-3        2O1g-2        2O1g-1        2O1g0         2O1g+1        2O1g+2    
   15    2O1g+3        2O1g+4        3Mg1s         3Mg2s         3Mg3s         3Mg4s         3Mg5s         3Mg6s         3Mg7s         3Mg8s     
   16    3Mg9s         3Mg10s        3Mg11s        3Mg12s        3Mg13s        3Mg1pz        3Mg1py        3Mg1px        3Mg2pz        3Mg2py    
   17    3Mg2px        3Mg3pz        3Mg3py        3Mg3px        3Mg4pz        3Mg4py        3Mg4px        3Mg5pz        3Mg5py        3Mg5px    
   18    3Mg6pz        3Mg6py        3Mg6px        3Mg7pz        3Mg7py        3Mg7px        3Mg8pz        3Mg8py        3Mg8px        3Mg9pz    
   19    3Mg9py        3Mg9px        3Mg1d-2       3Mg1d-1       3Mg1d0        3Mg1d+1       3Mg1d+2       3Mg2d-2       3Mg2d-1       3Mg2d0    
   20    3Mg2d+1       3Mg2d+2       3Mg3d-2       3Mg3d-1       3Mg3d0        3Mg3d+1       3Mg3d+2       3Mg4d-2       3Mg4d-1       3Mg4d0    
   21    3Mg4d+1       3Mg4d+2       3Mg5d-2       3Mg5d-1       3Mg5d0        3Mg5d+1       3Mg5d+2       3Mg6d-2       3Mg6d-1       3Mg6d0    
   22    3Mg6d+1       3Mg6d+2       3Mg7d-2       3Mg7d-1       3Mg7d0        3Mg7d+1       3Mg7d+2       3Mg1f-3       3Mg1f-2       3Mg1f-1   
   23    3Mg1f0        3Mg1f+1       3Mg1f+2       3Mg1f+3       3Mg2f-3       3Mg2f-2       3Mg2f-1       3Mg2f0        3Mg2f+1       3Mg2f+2   
   24    3Mg2f+3       3Mg3f-3       3Mg3f-2       3Mg3f-1       3Mg3f0        3Mg3f+1       3Mg3f+2       3Mg3f+3       3Mg4f-3       3Mg4f-2   
   25    3Mg4f-1       3Mg4f0        3Mg4f+1       3Mg4f+2       3Mg4f+3       3Mg1g-4       3Mg1g-3       3Mg1g-2       3Mg1g-1       3Mg1g0    
   26    3Mg1g+1       3Mg1g+2       3Mg1g+3       3Mg1g+4       4O1s          4O2s          4O3s          4O4s          4O5s          4O6s      
   27    4O7s          4O8s          4O9s          4O10s         4O1pz         4O1py         4O1px         4O2pz         4O2py         4O2px     
   28    4O3pz         4O3py         4O3px         4O4pz         4O4py         4O4px         4O5pz         4O5py         4O5px         4O6pz     
   29    4O6py         4O6px         4O7pz         4O7py         4O7px         4O8pz         4O8py         4O8px         4O1d-2        4O1d-1    
   30    4O1d0         4O1d+1        4O1d+2        4O2d-2        4O2d-1        4O2d0         4O2d+1        4O2d+2        4O3d-2        4O3d-1    
   31    4O3d0         4O3d+1        4O3d+2        4O4d-2        4O4d-1        4O4d0         4O4d+1        4O4d+2        4O1f-3        4O1f-2    
   32    4O1f-1        4O1f0         4O1f+1        4O1f+2        4O1f+3        4O2f-3        4O2f-2        4O2f-1        4O2f0         4O2f+1    
   33    4O2f+2        4O2f+3        4O1g-4        4O1g-3        4O1g-2        4O1g-1        4O1g0         4O1g+1        4O1g+2        4O1g+3    
   34    4O1g+4        5O1s          5O2s          5O3s          5O4s          5O5s          5O6s          5O7s          5O8s          5O9s      
   35    5O10s         5O1pz         5O1py         5O1px         5O2pz         5O2py         5O2px         5O3pz         5O3py         5O3px     
   36    5O4pz         5O4py         5O4px         5O5pz         5O5py         5O5px         5O6pz         5O6py         5O6px         5O7pz     
   37    5O7py         5O7px         5O8pz         5O8py         5O8px         5O1d-2        5O1d-1        5O1d0         5O1d+1        5O1d+2    
   38    5O2d-2        5O2d-1        5O2d0         5O2d+1        5O2d+2        5O3d-2        5O3d-1        5O3d0         5O3d+1        5O3d+2    
   39    5O4d-2        5O4d-1        5O4d0         5O4d+1        5O4d+2        5O1f-3        5O1f-2        5O1f-1        5O1f0         5O1f+1    
   40    5O1f+2        5O1f+3        5O2f-3        5O2f-2        5O2f-1        5O2f0         5O2f+1        5O2f+2        5O2f+3        5O1g-4    
   41    5O1g-3        5O1g-2        5O1g-1        5O1g0         5O1g+1        5O1g+2        5O1g+3        5O1g+4        6O1s          6O2s      
   42    6O3s          6O4s          6O5s          6O6s          6O7s          6O8s          6O9s          6O10s         6O1pz         6O1py     
   43    6O1px         6O2pz         6O2py         6O2px         6O3pz         6O3py         6O3px         6O4pz         6O4py         6O4px     
   44    6O5pz         6O5py         6O5px         6O6pz         6O6py         6O6px         6O7pz         6O7py         6O7px         6O8pz     
   45    6O8py         6O8px         6O1d-2        6O1d-1        6O1d0         6O1d+1        6O1d+2        6O2d-2        6O2d-1        6O2d0     
   46    6O2d+1        6O2d+2        6O3d-2        6O3d-1        6O3d0         6O3d+1        6O3d+2        6O4d-2        6O4d-1        6O4d0     
   47    6O4d+1        6O4d+2        6O1f-3        6O1f-2        6O1f-1        6O1f0         6O1f+1        6O1f+2        6O1f+3        6O2f-3    
   48    6O2f-2        6O2f-1        6O2f0         6O2f+1        6O2f+2        6O2f+3        6O1g-4        6O1g-3        6O1g-2        6O1g-1    
   49    6O1g0         6O1g+1        6O1g+2        6O1g+3        6O1g+4        7O1s          7O2s          7O3s          7O4s          7O5s      
   50    7O6s          7O7s          7O8s          7O9s          7O10s         7O1pz         7O1py         7O1px         7O2pz         7O2py     
   51    7O2px         7O3pz         7O3py         7O3px         7O4pz         7O4py         7O4px         7O5pz         7O5py         7O5px     
   52    7O6pz         7O6py         7O6px         7O7pz         7O7py         7O7px         7O8pz         7O8py         7O8px         7O1d-2    
   53    7O1d-1        7O1d0         7O1d+1        7O1d+2        7O2d-2        7O2d-1        7O2d0         7O2d+1        7O2d+2        7O3d-2    
   54    7O3d-1        7O3d0         7O3d+1        7O3d+2        7O4d-2        7O4d-1        7O4d0         7O4d+1        7O4d+2        7O1f-3    
   55    7O1f-2        7O1f-1        7O1f0         7O1f+1        7O1f+2        7O1f+3        7O2f-3        7O2f-2        7O2f-1        7O2f0     
   56    7O2f+1        7O2f+2        7O2f+3        7O1g-4        7O1g-3        7O1g-2        7O1g-1        7O1g0         7O1g+1        7O1g+2    
   57    7O1g+3        7O1g+4        8O1s          8O2s          8O3s          8O4s          8O5s          8O6s          8O7s          8O8s      
   58    8O9s          8O10s         8O1pz         8O1py         8O1px         8O2pz         8O2py         8O2px         8O3pz         8O3py     
   59    8O3px         8O4pz         8O4py         8O4px         8O5pz         8O5py         8O5px         8O6pz         8O6py         8O6px     
   60    8O7pz         8O7py         8O7px         8O8pz         8O8py         8O8px         8O1d-2        8O1d-1        8O1d0         8O1d+1    
   61    8O1d+2        8O2d-2        8O2d-1        8O2d0         8O2d+1        8O2d+2        8O3d-2        8O3d-1        8O3d0         8O3d+1    
   62    8O3d+2        8O4d-2        8O4d-1        8O4d0         8O4d+1        8O4d+2        8O1f-3        8O1f-2        8O1f-1        8O1f0     
   63    8O1f+1        8O1f+2        8O1f+3        8O2f-3        8O2f-2        8O2f-1        8O2f0         8O2f+1        8O2f+2        8O2f+3    
   64    8O1g-4        8O1g-3        8O1g-2        8O1g-1        8O1g0         8O1g+1        8O1g+2        8O1g+3        8O1g+4    
 
 Maximum number of basis functions per shell:   35
 Total number of basis functions:    649
 
 
 Fitting basis set for the correlation calculation:
 
   1  C  aug-cc-pvtz-ri [ 9s 7p 6d 4f 2g | 9s 7p 6d 4f 2g ]
   2  O  aug-cc-pvtz-ri [ 9s 7p 6d 4f 2g | 9s 7p 6d 4f 2g ]
   3  Mg bse_cvtz_mp2fit [ 14s 12p 10d 7f 3g | 14s 12p 10d 7f 3g ]
   4  O  aug-cc-pvtz-ri [ 9s 7p 6d 4f 2g | 9s 7p 6d 4f 2g ]
   5  O  aug-cc-pvtz-ri [ 9s 7p 6d 4f 2g | 9s 7p 6d 4f 2g ]
   6  O  aug-cc-pvtz-ri [ 9s 7p 6d 4f 2g | 9s 7p 6d 4f 2g ]
   7  O  aug-cc-pvtz-ri [ 9s 7p 6d 4f 2g | 9s 7p 6d 4f 2g ]
   8  O  aug-cc-pvtz-ri [ 9s 7p 6d 4f 2g | 9s 7p 6d 4f 2g ]
 
 Basis functions:
            1             2             3             4             5             6             7             8             9            10
    0    1C1s          1C2s          1C3s          1C4s          1C5s          1C6s          1C7s          1C8s          1C9s          1C1pz     
    1    1C1py         1C1px         1C2pz         1C2py         1C2px         1C3pz         1C3py         1C3px         1C4pz         1C4py     
    2    1C4px         1C5pz         1C5py         1C5px         1C6pz         1C6py         1C6px         1C7pz         1C7py         1C7px     
    3    1C1d-2        1C1d-1        1C1d0         1C1d+1        1C1d+2        1C2d-2        1C2d-1        1C2d0         1C2d+1        1C2d+2    
    4    1C3d-2        1C3d-1        1C3d0         1C3d+1        1C3d+2        1C4d-2        1C4d-1        1C4d0         1C4d+1        1C4d+2    
    5    1C5d-2        1C5d-1        1C5d0         1C5d+1        1C5d+2        1C6d-2        1C6d-1        1C6d0         1C6d+1        1C6d+2    
    6    1C1f-3        1C1f-2        1C1f-1        1C1f0         1C1f+1        1C1f+2        1C1f+3        1C2f-3        1C2f-2        1C2f-1    
    7    1C2f0         1C2f+1        1C2f+2        1C2f+3        1C3f-3        1C3f-2        1C3f-1        1C3f0         1C3f+1        1C3f+2    
    8    1C3f+3        1C4f-3        1C4f-2        1C4f-1        1C4f0         1C4f+1        1C4f+2        1C4f+3        1C1g-4        1C1g-3    
    9    1C1g-2        1C1g-1        1C1g0         1C1g+1        1C1g+2        1C1g+3        1C1g+4        1C2g-4        1C2g-3        1C2g-2    
   10    1C2g-1        1C2g0         1C2g+1        1C2g+2        1C2g+3        1C2g+4        2O1s          2O2s          2O3s          2O4s      
   11    2O5s          2O6s          2O7s          2O8s          2O9s          2O1pz         2O1py         2O1px         2O2pz         2O2py     
   12    2O2px         2O3pz         2O3py         2O3px         2O4pz         2O4py         2O4px         2O5pz         2O5py         2O5px     
   13    2O6pz         2O6py         2O6px         2O7pz         2O7py         2O7px         2O1d-2        2O1d-1        2O1d0         2O1d+1    
   14    2O1d+2        2O2d-2        2O2d-1        2O2d0         2O2d+1        2O2d+2        2O3d-2        2O3d-1        2O3d0         2O3d+1    
   15    2O3d+2        2O4d-2        2O4d-1        2O4d0         2O4d+1        2O4d+2        2O5d-2        2O5d-1        2O5d0         2O5d+1    
   16    2O5d+2        2O6d-2        2O6d-1        2O6d0         2O6d+1        2O6d+2        2O1f-3        2O1f-2        2O1f-1        2O1f0     
   17    2O1f+1        2O1f+2        2O1f+3        2O2f-3        2O2f-2        2O2f-1        2O2f0         2O2f+1        2O2f+2        2O2f+3    
   18    2O3f-3        2O3f-2        2O3f-1        2O3f0         2O3f+1        2O3f+2        2O3f+3        2O4f-3        2O4f-2        2O4f-1    
   19    2O4f0         2O4f+1        2O4f+2        2O4f+3        2O1g-4        2O1g-3        2O1g-2        2O1g-1        2O1g0         2O1g+1    
   20    2O1g+2        2O1g+3        2O1g+4        2O2g-4        2O2g-3        2O2g-2        2O2g-1        2O2g0         2O2g+1        2O2g+2    
   21    2O2g+3        2O2g+4        3Mg1s         3Mg2s         3Mg3s         3Mg4s         3Mg5s         3Mg6s         3Mg7s         3Mg8s     
   22    3Mg9s         3Mg10s        3Mg11s        3Mg12s        3Mg13s        3Mg14s        3Mg1pz        3Mg1py        3Mg1px        3Mg2pz    
   23    3Mg2py        3Mg2px        3Mg3pz        3Mg3py        3Mg3px        3Mg4pz        3Mg4py        3Mg4px        3Mg5pz        3Mg5py    
   24    3Mg5px        3Mg6pz        3Mg6py        3Mg6px        3Mg7pz        3Mg7py        3Mg7px        3Mg8pz        3Mg8py        3Mg8px    
   25    3Mg9pz        3Mg9py        3Mg9px        3Mg10pz       3Mg10py       3Mg10px       3Mg11pz       3Mg11py       3Mg11px       3Mg12pz   
   26    3Mg12py       3Mg12px       3Mg1d-2       3Mg1d-1       3Mg1d0        3Mg1d+1       3Mg1d+2       3Mg2d-2       3Mg2d-1       3Mg2d0    
   27    3Mg2d+1       3Mg2d+2       3Mg3d-2       3Mg3d-1       3Mg3d0        3Mg3d+1       3Mg3d+2       3Mg4d-2       3Mg4d-1       3Mg4d0    
   28    3Mg4d+1       3Mg4d+2       3Mg5d-2       3Mg5d-1       3Mg5d0        3Mg5d+1       3Mg5d+2       3Mg6d-2       3Mg6d-1       3Mg6d0    
   29    3Mg6d+1       3Mg6d+2       3Mg7d-2       3Mg7d-1       3Mg7d0        3Mg7d+1       3Mg7d+2       3Mg8d-2       3Mg8d-1       3Mg8d0    
   30    3Mg8d+1       3Mg8d+2       3Mg9d-2       3Mg9d-1       3Mg9d0        3Mg9d+1       3Mg9d+2       3Mg10d-2      3Mg10d-1      3Mg10d0   
   31    3Mg10d+1      3Mg10d+2      3Mg1f-3       3Mg1f-2       3Mg1f-1       3Mg1f0        3Mg1f+1       3Mg1f+2       3Mg1f+3       3Mg2f-3   
   32    3Mg2f-2       3Mg2f-1       3Mg2f0        3Mg2f+1       3Mg2f+2       3Mg2f+3       3Mg3f-3       3Mg3f-2       3Mg3f-1       3Mg3f0    
   33    3Mg3f+1       3Mg3f+2       3Mg3f+3       3Mg4f-3       3Mg4f-2       3Mg4f-1       3Mg4f0        3Mg4f+1       3Mg4f+2       3Mg4f+3   
   34    3Mg5f-3       3Mg5f-2       3Mg5f-1       3Mg5f0        3Mg5f+1       3Mg5f+2       3Mg5f+3       3Mg6f-3       3Mg6f-2       3Mg6f-1   
   35    3Mg6f0        3Mg6f+1       3Mg6f+2       3Mg6f+3       3Mg7f-3       3Mg7f-2       3Mg7f-1       3Mg7f0        3Mg7f+1       3Mg7f+2   
   36    3Mg7f+3       3Mg1g-4       3Mg1g-3       3Mg1g-2       3Mg1g-1       3Mg1g0        3Mg1g+1       3Mg1g+2       3Mg1g+3       3Mg1g+4   
   37    3Mg2g-4       3Mg2g-3       3Mg2g-2       3Mg2g-1       3Mg2g0        3Mg2g+1       3Mg2g+2       3Mg2g+3       3Mg2g+4       3Mg3g-4   
   38    3Mg3g-3       3Mg3g-2       3Mg3g-1       3Mg3g0        3Mg3g+1       3Mg3g+2       3Mg3g+3       3Mg3g+4       4O1s          4O2s      
   39    4O3s          4O4s          4O5s          4O6s          4O7s          4O8s          4O9s          4O1pz         4O1py         4O1px     
   40    4O2pz         4O2py         4O2px         4O3pz         4O3py         4O3px         4O4pz         4O4py         4O4px         4O5pz     
   41    4O5py         4O5px         4O6pz         4O6py         4O6px         4O7pz         4O7py         4O7px         4O1d-2        4O1d-1    
   42    4O1d0         4O1d+1        4O1d+2        4O2d-2        4O2d-1        4O2d0         4O2d+1        4O2d+2        4O3d-2        4O3d-1    
   43    4O3d0         4O3d+1        4O3d+2        4O4d-2        4O4d-1        4O4d0         4O4d+1        4O4d+2        4O5d-2        4O5d-1    
   44    4O5d0         4O5d+1        4O5d+2        4O6d-2        4O6d-1        4O6d0         4O6d+1        4O6d+2        4O1f-3        4O1f-2    
   45    4O1f-1        4O1f0         4O1f+1        4O1f+2        4O1f+3        4O2f-3        4O2f-2        4O2f-1        4O2f0         4O2f+1    
   46    4O2f+2        4O2f+3        4O3f-3        4O3f-2        4O3f-1        4O3f0         4O3f+1        4O3f+2        4O3f+3        4O4f-3    
   47    4O4f-2        4O4f-1        4O4f0         4O4f+1        4O4f+2        4O4f+3        4O1g-4        4O1g-3        4O1g-2        4O1g-1    
   48    4O1g0         4O1g+1        4O1g+2        4O1g+3        4O1g+4        4O2g-4        4O2g-3        4O2g-2        4O2g-1        4O2g0     
   49    4O2g+1        4O2g+2        4O2g+3        4O2g+4        5O1s          5O2s          5O3s          5O4s          5O5s          5O6s      
   50    5O7s          5O8s          5O9s          5O1pz         5O1py         5O1px         5O2pz         5O2py         5O2px         5O3pz     
   51    5O3py         5O3px         5O4pz         5O4py         5O4px         5O5pz         5O5py         5O5px         5O6pz         5O6py     
   52    5O6px         5O7pz         5O7py         5O7px         5O1d-2        5O1d-1        5O1d0         5O1d+1        5O1d+2        5O2d-2    
   53    5O2d-1        5O2d0         5O2d+1        5O2d+2        5O3d-2        5O3d-1        5O3d0         5O3d+1        5O3d+2        5O4d-2    
   54    5O4d-1        5O4d0         5O4d+1        5O4d+2        5O5d-2        5O5d-1        5O5d0         5O5d+1        5O5d+2        5O6d-2    
   55    5O6d-1        5O6d0         5O6d+1        5O6d+2        5O1f-3        5O1f-2        5O1f-1        5O1f0         5O1f+1        5O1f+2    
   56    5O1f+3        5O2f-3        5O2f-2        5O2f-1        5O2f0         5O2f+1        5O2f+2        5O2f+3        5O3f-3        5O3f-2    
   57    5O3f-1        5O3f0         5O3f+1        5O3f+2        5O3f+3        5O4f-3        5O4f-2        5O4f-1        5O4f0         5O4f+1    
   58    5O4f+2        5O4f+3        5O1g-4        5O1g-3        5O1g-2        5O1g-1        5O1g0         5O1g+1        5O1g+2        5O1g+3    
   59    5O1g+4        5O2g-4        5O2g-3        5O2g-2        5O2g-1        5O2g0         5O2g+1        5O2g+2        5O2g+3        5O2g+4    
   60    6O1s          6O2s          6O3s          6O4s          6O5s          6O6s          6O7s          6O8s          6O9s          6O1pz     
   61    6O1py         6O1px         6O2pz         6O2py         6O2px         6O3pz         6O3py         6O3px         6O4pz         6O4py     
   62    6O4px         6O5pz         6O5py         6O5px         6O6pz         6O6py         6O6px         6O7pz         6O7py         6O7px     
   63    6O1d-2        6O1d-1        6O1d0         6O1d+1        6O1d+2        6O2d-2        6O2d-1        6O2d0         6O2d+1        6O2d+2    
   64    6O3d-2        6O3d-1        6O3d0         6O3d+1        6O3d+2        6O4d-2        6O4d-1        6O4d0         6O4d+1        6O4d+2    
   65    6O5d-2        6O5d-1        6O5d0         6O5d+1        6O5d+2        6O6d-2        6O6d-1        6O6d0         6O6d+1        6O6d+2    
   66    6O1f-3        6O1f-2        6O1f-1        6O1f0         6O1f+1        6O1f+2        6O1f+3        6O2f-3        6O2f-2        6O2f-1    
   67    6O2f0         6O2f+1        6O2f+2        6O2f+3        6O3f-3        6O3f-2        6O3f-1        6O3f0         6O3f+1        6O3f+2    
   68    6O3f+3        6O4f-3        6O4f-2        6O4f-1        6O4f0         6O4f+1        6O4f+2        6O4f+3        6O1g-4        6O1g-3    
   69    6O1g-2        6O1g-1        6O1g0         6O1g+1        6O1g+2        6O1g+3        6O1g+4        6O2g-4        6O2g-3        6O2g-2    
   70    6O2g-1        6O2g0         6O2g+1        6O2g+2        6O2g+3        6O2g+4        7O1s          7O2s          7O3s          7O4s      
   71    7O5s          7O6s          7O7s          7O8s          7O9s          7O1pz         7O1py         7O1px         7O2pz         7O2py     
   72    7O2px         7O3pz         7O3py         7O3px         7O4pz         7O4py         7O4px         7O5pz         7O5py         7O5px     
   73    7O6pz         7O6py         7O6px         7O7pz         7O7py         7O7px         7O1d-2        7O1d-1        7O1d0         7O1d+1    
   74    7O1d+2        7O2d-2        7O2d-1        7O2d0         7O2d+1        7O2d+2        7O3d-2        7O3d-1        7O3d0         7O3d+1    
   75    7O3d+2        7O4d-2        7O4d-1        7O4d0         7O4d+1        7O4d+2        7O5d-2        7O5d-1        7O5d0         7O5d+1    
   76    7O5d+2        7O6d-2        7O6d-1        7O6d0         7O6d+1        7O6d+2        7O1f-3        7O1f-2        7O1f-1        7O1f0     
   77    7O1f+1        7O1f+2        7O1f+3        7O2f-3        7O2f-2        7O2f-1        7O2f0         7O2f+1        7O2f+2        7O2f+3    
   78    7O3f-3        7O3f-2        7O3f-1        7O3f0         7O3f+1        7O3f+2        7O3f+3        7O4f-3        7O4f-2        7O4f-1    
   79    7O4f0         7O4f+1        7O4f+2        7O4f+3        7O1g-4        7O1g-3        7O1g-2        7O1g-1        7O1g0         7O1g+1    
   80    7O1g+2        7O1g+3        7O1g+4        7O2g-4        7O2g-3        7O2g-2        7O2g-1        7O2g0         7O2g+1        7O2g+2    
   81    7O2g+3        7O2g+4        8O1s          8O2s          8O3s          8O4s          8O5s          8O6s          8O7s          8O8s      
   82    8O9s          8O1pz         8O1py         8O1px         8O2pz         8O2py         8O2px         8O3pz         8O3py         8O3px     
   83    8O4pz         8O4py         8O4px         8O5pz         8O5py         8O5px         8O6pz         8O6py         8O6px         8O7pz     
   84    8O7py         8O7px         8O1d-2        8O1d-1        8O1d0         8O1d+1        8O1d+2        8O2d-2        8O2d-1        8O2d0     
   85    8O2d+1        8O2d+2        8O3d-2        8O3d-1        8O3d0         8O3d+1        8O3d+2        8O4d-2        8O4d-1        8O4d0     
   86    8O4d+1        8O4d+2        8O5d-2        8O5d-1        8O5d0         8O5d+1        8O5d+2        8O6d-2        8O6d-1        8O6d0     
   87    8O6d+1        8O6d+2        8O1f-3        8O1f-2        8O1f-1        8O1f0         8O1f+1        8O1f+2        8O1f+3        8O2f-3    
   88    8O2f-2        8O2f-1        8O2f0         8O2f+1        8O2f+2        8O2f+3        8O3f-3        8O3f-2        8O3f-1        8O3f0     
   89    8O3f+1        8O3f+2        8O3f+3        8O4f-3        8O4f-2        8O4f-1        8O4f0         8O4f+1        8O4f+2        8O4f+3    
   90    8O1g-4        8O1g-3        8O1g-2        8O1g-1        8O1g0         8O1g+1        8O1g+2        8O1g+3        8O1g+4        8O2g-4    
   91    8O2g-3        8O2g-2        8O2g-1        8O2g0         8O2g+1        8O2g+2        8O2g+3        8O2g+4    
 
 Maximum number of basis functions per shell:   50
 Total number of basis functions:    918
 
 
 Old basis set for SCF restart
 
   1  C  def2-svp [ 7s 4p 1d | 3s 2p 1d ]
   2  O  def2-svp [ 7s 4p 1d | 3s 2p 1d ]
   3  Mg def2-svp [ 10s 7p 1d | 4s 3p 1d ]
   4  O  def2-svp [ 7s 4p 1d | 3s 2p 1d ]
   5  O  def2-svp [ 7s 4p 1d | 3s 2p 1d ]
   6  O  def2-svp [ 7s 4p 1d | 3s 2p 1d ]
   7  O  def2-svp [ 7s 4p 1d | 3s 2p 1d ]
   8  O  def2-svp [ 7s 4p 1d | 3s 2p 1d ]
 
 Basis functions:
            1             2             3             4             5             6             7             8             9            10
    0    1C1s          1C2s          1C3s          1C1pz         1C1py         1C1px         1C2pz         1C2py         1C2px         1C1d-2    
    1    1C1d-1        1C1d0         1C1d+1        1C1d+2        2O1s          2O2s          2O3s          2O1pz         2O1py         2O1px     
    2    2O2pz         2O2py         2O2px         2O1d-2        2O1d-1        2O1d0         2O1d+1        2O1d+2        3Mg1s         3Mg2s     
    3    3Mg3s         3Mg4s         3Mg1pz        3Mg1py        3Mg1px        3Mg2pz        3Mg2py        3Mg2px        3Mg3pz        3Mg3py    
    4    3Mg3px        3Mg1d-2       3Mg1d-1       3Mg1d0        3Mg1d+1       3Mg1d+2       4O1s          4O2s          4O3s          4O1pz     
    5    4O1py         4O1px         4O2pz         4O2py         4O2px         4O1d-2        4O1d-1        4O1d0         4O1d+1        4O1d+2    
    6    5O1s          5O2s          5O3s          5O1pz         5O1py         5O1px         5O2pz         5O2py         5O2px         5O1d-2    
    7    5O1d-1        5O1d0         5O1d+1        5O1d+2        6O1s          6O2s          6O3s          6O1pz         6O1py         6O1px     
    8    6O2pz         6O2py         6O2px         6O1d-2        6O1d-1        6O1d0         6O1d+1        6O1d+2        7O1s          7O2s      
    9    7O3s          7O1pz         7O1py         7O1px         7O2pz         7O2py         7O2px         7O1d-2        7O1d-1        7O1d0     
   10    7O1d+1        7O1d+2        8O1s          8O2s          8O3s          8O1pz         8O1py         8O1px         8O2pz         8O2py     
   11    8O2px         8O1d-2        8O1d-1        8O1d0         8O1d+1        8O1d+2    
 
 Maximum number of basis functions per shell:   50
 Total number of basis functions:    116
 
 
 Character table for point group C1:
 
          E  
    A     1
 
 Number of basis functions per irrep:
    A     381
 
 
 Calculation of overlap integrals...
 CPU time [min]:     0.140                   Wall time [min]:     0.007
 
[...]
    1    1C1py         1C1px         1C2pz         1C2py         1C2px         1C3pz         1C3py         1C3px         1C4pz         1C4py     
    2    1C4px         1C5pz         1C5py         1C5px         1C6pz         1C6py         1C6px         1C7pz         1C7py         1C7px     
    3    1C1d-2        1C1d-1        1C1d0         1C1d+1        1C1d+2        1C2d-2        1C2d-1        1C2d0         1C2d+1        1C2d+2    
    4    1C3d-2        1C3d-1        1C3d0         1C3d+1        1C3d+2        1C4d-2        1C4d-1        1C4d0         1C4d+1        1C4d+2    
    5    1C5d-2        1C5d-1        1C5d0         1C5d+1        1C5d+2        1C6d-2        1C6d-1        1C6d0         1C6d+1        1C6d+2    
    6    1C1f-3        1C1f-2        1C1f-1        1C1f0         1C1f+1        1C1f+2        1C1f+3        1C2f-3        1C2f-2        1C2f-1    
    7    1C2f0         1C2f+1        1C2f+2        1C2f+3        1C3f-3        1C3f-2        1C3f-1        1C3f0         1C3f+1        1C3f+2    
    8    1C3f+3        1C4f-3        1C4f-2        1C4f-1        1C4f0         1C4f+1        1C4f+2        1C4f+3        1C1g-4        1C1g-3    
    9    1C1g-2        1C1g-1        1C1g0         1C1g+1        1C1g+2        1C1g+3        1C1g+4        1C2g-4        1C2g-3        1C2g-2    
   10    1C2g-1        1C2g0         1C2g+1        1C2g+2        1C2g+3        1C2g+4        2O1s          2O2s          2O3s          2O4s      
   11    2O5s          2O6s          2O7s          2O8s          2O9s          2O1pz         2O1py         2O1px         2O2pz         2O2py     
   12    2O2px         2O3pz         2O3py         2O3px         2O4pz         2O4py         2O4px         2O5pz         2O5py         2O5px     
   13    2O6pz         2O6py         2O6px         2O7pz         2O7py         2O7px         2O1d-2        2O1d-1        2O1d0         2O1d+1    
   14    2O1d+2        2O2d-2        2O2d-1        2O2d0         2O2d+1        2O2d+2        2O3d-2        2O3d-1        2O3d0         2O3d+1    
   15    2O3d+2        2O4d-2        2O4d-1        2O4d0         2O4d+1        2O4d+2        2O5d-2        2O5d-1        2O5d0         2O5d+1    
   16    2O5d+2        2O6d-2        2O6d-1        2O6d0         2O6d+1        2O6d+2        2O1f-3        2O1f-2        2O1f-1        2O1f0     
   17    2O1f+1        2O1f+2        2O1f+3        2O2f-3        2O2f-2        2O2f-1        2O2f0         2O2f+1        2O2f+2        2O2f+3    
   18    2O3f-3        2O3f-2        2O3f-1        2O3f0         2O3f+1        2O3f+2        2O3f+3        2O4f-3        2O4f-2        2O4f-1    
   19    2O4f0         2O4f+1        2O4f+2        2O4f+3        2O1g-4        2O1g-3        2O1g-2        2O1g-1        2O1g0         2O1g+1    
   20    2O1g+2        2O1g+3        2O1g+4        2O2g-4        2O2g-3        2O2g-2        2O2g-1        2O2g0         2O2g+1        2O2g+2    
   21    2O2g+3        2O2g+4        3Mg1s         3Mg2s         3Mg3s         3Mg4s         3Mg5s         3Mg6s         3Mg7s         3Mg8s     
   22    3Mg9s         3Mg10s        3Mg11s        3Mg12s        3Mg13s        3Mg14s        3Mg1pz        3Mg1py        3Mg1px        3Mg2pz    
   23    3Mg2py        3Mg2px        3Mg3pz        3Mg3py        3Mg3px        3Mg4pz        3Mg4py        3Mg4px        3Mg5pz        3Mg5py    
   24    3Mg5px        3Mg6pz        3Mg6py        3Mg6px        3Mg7pz        3Mg7py        3Mg7px        3Mg8pz        3Mg8py        3Mg8px    
   25    3Mg9pz        3Mg9py        3Mg9px        3Mg10pz       3Mg10py       3Mg10px       3Mg11pz       3Mg11py       3Mg11px       3Mg12pz   
   26    3Mg12py       3Mg12px       3Mg1d-2       3Mg1d-1       3Mg1d0        3Mg1d+1       3Mg1d+2       3Mg2d-2       3Mg2d-1       3Mg2d0    
   27    3Mg2d+1       3Mg2d+2       3Mg3d-2       3Mg3d-1       3Mg3d0        3Mg3d+1       3Mg3d+2       3Mg4d-2       3Mg4d-1       3Mg4d0    
   28    3Mg4d+1       3Mg4d+2       3Mg5d-2       3Mg5d-1       3Mg5d0        3Mg5d+1       3Mg5d+2       3Mg6d-2       3Mg6d-1       3Mg6d0    
   29    3Mg6d+1       3Mg6d+2       3Mg7d-2       3Mg7d-1       3Mg7d0        3Mg7d+1       3Mg7d+2       3Mg8d-2       3Mg8d-1       3Mg8d0    
   30    3Mg8d+1       3Mg8d+2       3Mg9d-2       3Mg9d-1       3Mg9d0        3Mg9d+1       3Mg9d+2       3Mg10d-2      3Mg10d-1      3Mg10d0   
   31    3Mg10d+1      3Mg10d+2      3Mg1f-3       3Mg1f-2       3Mg1f-1       3Mg1f0        3Mg1f+1       3Mg1f+2       3Mg1f+3       3Mg2f-3   
   32    3Mg2f-2       3Mg2f-1       3Mg2f0        3Mg2f+1       3Mg2f+2       3Mg2f+3       3Mg3f-3       3Mg3f-2       3Mg3f-1       3Mg3f0    
   33    3Mg3f+1       3Mg3f+2       3Mg3f+3       3Mg4f-3       3Mg4f-2       3Mg4f-1       3Mg4f0        3Mg4f+1       3Mg4f+2       3Mg4f+3   
   34    3Mg5f-3       3Mg5f-2       3Mg5f-1       3Mg5f0        3Mg5f+1       3Mg5f+2       3Mg5f+3       3Mg6f-3       3Mg6f-2       3Mg6f-1   
   35    3Mg6f0        3Mg6f+1       3Mg6f+2       3Mg6f+3       3Mg7f-3       3Mg7f-2       3Mg7f-1       3Mg7f0        3Mg7f+1       3Mg7f+2   
   36    3Mg7f+3       3Mg1g-4       3Mg1g-3       3Mg1g-2       3Mg1g-1       3Mg1g0        3Mg1g+1       3Mg1g+2       3Mg1g+3       3Mg1g+4   
   37    3Mg2g-4       3Mg2g-3       3Mg2g-2       3Mg2g-1       3Mg2g0        3Mg2g+1       3Mg2g+2       3Mg2g+3       3Mg2g+4       3Mg3g-4   
   38    3Mg3g-3       3Mg3g-2       3Mg3g-1       3Mg3g0        3Mg3g+1       3Mg3g+2       3Mg3g+3       3Mg3g+4       4O1s          4O2s      
   39    4O3s          4O4s          4O5s          4O6s          4O7s          4O8s          4O9s          4O1pz         4O1py         4O1px     
   40    4O2pz         4O2py         4O2px         4O3pz         4O3py         4O3px         4O4pz         4O4py         4O4px         4O5pz     
   41    4O5py         4O5px         4O6pz         4O6py         4O6px         4O7pz         4O7py         4O7px         4O1d-2        4O1d-1    
   42    4O1d0         4O1d+1        4O1d+2        4O2d-2        4O2d-1        4O2d0         4O2d+1        4O2d+2        4O3d-2        4O3d-1    
   43    4O3d0         4O3d+1        4O3d+2        4O4d-2        4O4d-1        4O4d0         4O4d+1        4O4d+2        4O5d-2        4O5d-1    
   44    4O5d0         4O5d+1        4O5d+2        4O6d-2        4O6d-1        4O6d0         4O6d+1        4O6d+2        4O1f-3        4O1f-2    
   45    4O1f-1        4O1f0         4O1f+1        4O1f+2        4O1f+3        4O2f-3        4O2f-2        4O2f-1        4O2f0         4O2f+1    
   46    4O2f+2        4O2f+3        4O3f-3        4O3f-2        4O3f-1        4O3f0         4O3f+1        4O3f+2        4O3f+3        4O4f-3    
   47    4O4f-2        4O4f-1        4O4f0         4O4f+1        4O4f+2        4O4f+3        4O1g-4        4O1g-3        4O1g-2        4O1g-1    
   48    4O1g0         4O1g+1        4O1g+2        4O1g+3        4O1g+4        4O2g-4        4O2g-3        4O2g-2        4O2g-1        4O2g0     
   49    4O2g+1        4O2g+2        4O2g+3        4O2g+4        5O1s          5O2s          5O3s          5O4s          5O5s          5O6s      
   50    5O7s          5O8s          5O9s          5O1pz         5O1py         5O1px         5O2pz         5O2py         5O2px         5O3pz     
   51    5O3py         5O3px         5O4pz         5O4py         5O4px         5O5pz         5O5py         5O5px         5O6pz         5O6py     
   52    5O6px         5O7pz         5O7py         5O7px         5O1d-2        5O1d-1        5O1d0         5O1d+1        5O1d+2        5O2d-2    
   53    5O2d-1        5O2d0         5O2d+1        5O2d+2        5O3d-2        5O3d-1        5O3d0         5O3d+1        5O3d+2        5O4d-2    
   54    5O4d-1        5O4d0         5O4d+1        5O4d+2        5O5d-2        5O5d-1        5O5d0         5O5d+1        5O5d+2        5O6d-2    
   55    5O6d-1        5O6d0         5O6d+1        5O6d+2        5O1f-3        5O1f-2        5O1f-1        5O1f0         5O1f+1        5O1f+2    
   56    5O1f+3        5O2f-3        5O2f-2        5O2f-1        5O2f0         5O2f+1        5O2f+2        5O2f+3        5O3f-3        5O3f-2    
   57    5O3f-1        5O3f0         5O3f+1        5O3f+2        5O3f+3        5O4f-3        5O4f-2        5O4f-1        5O4f0         5O4f+1    
   58    5O4f+2        5O4f+3        5O1g-4        5O1g-3        5O1g-2        5O1g-1        5O1g0         5O1g+1        5O1g+2        5O1g+3    
   59    5O1g+4        5O2g-4        5O2g-3        5O2g-2        5O2g-1        5O2g0         5O2g+1        5O2g+2        5O2g+3        5O2g+4    
   60    6O1s          6O2s          6O3s          6O4s          6O5s          6O6s          6O7s          6O8s          6O9s          6O1pz     
   61    6O1py         6O1px         6O2pz         6O2py         6O2px         6O3pz         6O3py         6O3px         6O4pz         6O4py     
   62    6O4px         6O5pz         6O5py         6O5px         6O6pz         6O6py         6O6px         6O7pz         6O7py         6O7px     
   63    6O1d-2        6O1d-1        6O1d0         6O1d+1        6O1d+2        6O2d-2        6O2d-1        6O2d0         6O2d+1        6O2d+2    
   64    6O3d-2        6O3d-1        6O3d0         6O3d+1        6O3d+2        6O4d-2        6O4d-1        6O4d0         6O4d+1        6O4d+2    
   65    6O5d-2        6O5d-1        6O5d0         6O5d+1        6O5d+2        6O6d-2        6O6d-1        6O6d0         6O6d+1        6O6d+2    
   66    6O1f-3        6O1f-2        6O1f-1        6O1f0         6O1f+1        6O1f+2        6O1f+3        6O2f-3        6O2f-2        6O2f-1    
   67    6O2f0         6O2f+1        6O2f+2        6O2f+3        6O3f-3        6O3f-2        6O3f-1        6O3f0         6O3f+1        6O3f+2    
   68    6O3f+3        6O4f-3        6O4f-2        6O4f-1        6O4f0         6O4f+1        6O4f+2        6O4f+3        6O1g-4        6O1g-3    
   69    6O1g-2        6O1g-1        6O1g0         6O1g+1        6O1g+2        6O1g+3        6O1g+4        6O2g-4        6O2g-3        6O2g-2    
   70    6O2g-1        6O2g0         6O2g+1        6O2g+2        6O2g+3        6O2g+4        7O1s          7O2s          7O3s          7O4s      
   71    7O5s          7O6s          7O7s          7O8s          7O9s          7O1pz         7O1py         7O1px         7O2pz         7O2py     
   72    7O2px         7O3pz         7O3py         7O3px         7O4pz         7O4py         7O4px         7O5pz         7O5py         7O5px     
   73    7O6pz         7O6py         7O6px         7O7pz         7O7py         7O7px         7O1d-2        7O1d-1        7O1d0         7O1d+1    
   74    7O1d+2        7O2d-2        7O2d-1        7O2d0         7O2d+1        7O2d+2        7O3d-2        7O3d-1        7O3d0         7O3d+1    
   75    7O3d+2        7O4d-2        7O4d-1        7O4d0         7O4d+1        7O4d+2        7O5d-2        7O5d-1        7O5d0         7O5d+1    
   76    7O5d+2        7O6d-2        7O6d-1        7O6d0         7O6d+1        7O6d+2        7O1f-3        7O1f-2        7O1f-1        7O1f0     
   77    7O1f+1        7O1f+2        7O1f+3        7O2f-3        7O2f-2        7O2f-1        7O2f0         7O2f+1        7O2f+2        7O2f+3    
   78    7O3f-3        7O3f-2        7O3f-1        7O3f0         7O3f+1        7O3f+2        7O3f+3        7O4f-3        7O4f-2        7O4f-1    
   79    7O4f0         7O4f+1        7O4f+2        7O4f+3        7O1g-4        7O1g-3        7O1g-2        7O1g-1        7O1g0         7O1g+1    
   80    7O1g+2        7O1g+3        7O1g+4        7O2g-4        7O2g-3        7O2g-2        7O2g-1        7O2g0         7O2g+1        7O2g+2    
   81    7O2g+3        7O2g+4        8O1s          8O2s          8O3s          8O4s          8O5s          8O6s          8O7s          8O8s      
   82    8O9s          8O1pz         8O1py         8O1px         8O2pz         8O2py         8O2px         8O3pz         8O3py         8O3px     
   83    8O4pz         8O4py         8O4px         8O5pz         8O5py         8O5px         8O6pz         8O6py         8O6px         8O7pz     
   84    8O7py         8O7px         8O1d-2        8O1d-1        8O1d0         8O1d+1        8O1d+2        8O2d-2        8O2d-1        8O2d0     
   85    8O2d+1        8O2d+2        8O3d-2        8O3d-1        8O3d0         8O3d+1        8O3d+2        8O4d-2        8O4d-1        8O4d0     
   86    8O4d+1        8O4d+2        8O5d-2        8O5d-1        8O5d0         8O5d+1        8O5d+2        8O6d-2        8O6d-1        8O6d0     
   87    8O6d+1        8O6d+2        8O1f-3        8O1f-2        8O1f-1        8O1f0         8O1f+1        8O1f+2        8O1f+3        8O2f-3    
   88    8O2f-2        8O2f-1        8O2f0         8O2f+1        8O2f+2        8O2f+3        8O3f-3        8O3f-2        8O3f-1        8O3f0     
   89    8O3f+1        8O3f+2        8O3f+3        8O4f-3        8O4f-2        8O4f-1        8O4f0         8O4f+1        8O4f+2        8O4f+3    
   90    8O1g-4        8O1g-3        8O1g-2        8O1g-1        8O1g0         8O1g+1        8O1g+2        8O1g+3        8O1g+4        8O2g-4    
   91    8O2g-3        8O2g-2        8O2g-1        8O2g0         8O2g+1        8O2g+2        8O2g+3        8O2g+4    
 
 Maximum number of basis functions per shell:   50
 Total number of basis functions:    918
 
 
 Old basis set for SCF restart
 
   1  C  def2-svp [ 7s 4p 1d | 3s 2p 1d ]
   2  O  def2-svp [ 7s 4p 1d | 3s 2p 1d ]
   3  Mg def2-svp [ 10s 7p 1d | 4s 3p 1d ]
   4  O  def2-svp [ 7s 4p 1d | 3s 2p 1d ]
   5  O  def2-svp [ 7s 4p 1d | 3s 2p 1d ]
   6  O  def2-svp [ 7s 4p 1d | 3s 2p 1d ]
   7  O  def2-svp [ 7s 4p 1d | 3s 2p 1d ]
   8  O  def2-svp [ 7s 4p 1d | 3s 2p 1d ]
 
 Basis functions:
            1             2             3             4             5             6             7             8             9            10
    0    1C1s          1C2s          1C3s          1C1pz         1C1py         1C1px         1C2pz         1C2py         1C2px         1C1d-2    
    1    1C1d-1        1C1d0         1C1d+1        1C1d+2        2O1s          2O2s          2O3s          2O1pz         2O1py         2O1px     
    2    2O2pz         2O2py         2O2px         2O1d-2        2O1d-1        2O1d0         2O1d+1        2O1d+2        3Mg1s         3Mg2s     
    3    3Mg3s         3Mg4s         3Mg1pz        3Mg1py        3Mg1px        3Mg2pz        3Mg2py        3Mg2px        3Mg3pz        3Mg3py    
    4    3Mg3px        3Mg1d-2       3Mg1d-1       3Mg1d0        3Mg1d+1       3Mg1d+2       4O1s          4O2s          4O3s          4O1pz     
    5    4O1py         4O1px         4O2pz         4O2py         4O2px         4O1d-2        4O1d-1        4O1d0         4O1d+1        4O1d+2    
    6    5O1s          5O2s          5O3s          5O1pz         5O1py         5O1px         5O2pz         5O2py         5O2px         5O1d-2    
    7    5O1d-1        5O1d0         5O1d+1        5O1d+2        6O1s          6O2s          6O3s          6O1pz         6O1py         6O1px     
    8    6O2pz         6O2py         6O2px         6O1d-2        6O1d-1        6O1d0         6O1d+1        6O1d+2        7O1s          7O2s      
    9    7O3s          7O1pz         7O1py         7O1px         7O2pz         7O2py         7O2px         7O1d-2        7O1d-1        7O1d0     
   10    7O1d+1        7O1d+2        8O1s          8O2s          8O3s          8O1pz         8O1py         8O1px         8O2pz         8O2py     
   11    8O2px         8O1d-2        8O1d-1        8O1d0         8O1d+1        8O1d+2    
 
 Maximum number of basis functions per shell:   50
 Total number of basis functions:    116
 
 
 Calculation of prescreening integrals...
 CPU time [min]:     0.826                   Wall time [min]:     0.029
 
 Calculation of two-center Coulomb integrals...
   1% done.
  12% done.
  24% done.
  36% done.
  47% done.
  59% done.
  70% done.
  84% done.
  96% done.
 100% done.
 CPU time [min]:     0.855                   Wall time [min]:     0.029
 
 Calculation of inverse square root of the two-center integral matrix...
 CPU time [min]:     0.986                   Wall time [min]:     0.033
 
 Calculation of three-center Coulomb integrals...
   1% done.
  13% done.
  27% done.
  41% done.
  52% done.
  65% done.
  77% done.
  93% done.
 100% done.
 CPU time [min]:     2.108                   Wall time [min]:     0.065

 ************************ 2023-05-25 21:18:20 *************************
 Executing drpa...

 Three-index integral transformation
 
 Allocation of 160.0 Gbytes of memory...
 Minimal memory requirement for (ai|P) and (ij|P) integrals:       11.8 MB

 Calculating (ai|P) and (ij|P) integrals...
 Number of integral batches:    1
 Occupied indices per batch:    5
 
 Transforming integrals of batch 1...
 CPU time [min]:     1.007                   Wall time [min]:     0.151

 Calculating (ab|P) integrals...
 Minimal memory requirement for (ab|P) integrals:        9.2 MB
 Number of integral batches:    1
 Virtual indices per batch:   374

 Transforming integrals of batch 1...
 CPU time [min]:     2.124                   Wall time [min]:     0.273

 ************************ 2023-05-25 21:18:46 *************************
 Executing ccsd...

 Allocation of 160.0 Gbytes of memory...

 Direct DF-CCSD(T) calculation
 
 Convergence criterion:  1.0E-06
 
 Number of occupied/virtual/auxiliary orbitals:     5   374   918
   4632.45 MB is the minimal memory requirement for (T)
   1104.88 MB is the minimal memory requirement for CCSD
 
 Reference energy [au]:            -112.778617365492
 T1 contribution [au]:                0.000000000000
 Same spin MP2 energy [au]:          -0.092137606011
 Opposite spin MP2 energy [au]:      -0.272179899740
 MP2 correlation energy [au]:        -0.364317505750
 Total MP2 energy [au]:            -113.142934871243
 
 
 CPU time [min]:     0.563                   Wall time [min]:     0.083
 
 Starting CCSD iterations...
 
                     Residual norm          Energy
 Iteration  1        0.217310572736     -113.128920048168
 Iteration  2        0.073037013656     -113.141514789542
 Iteration  3        0.025322572004     -113.145161256686
 Iteration  4        0.007670456089     -113.144571438412
 Iteration  5        0.002336811128     -113.144648800710
 Iteration  6        0.000483719987     -113.144663051211
 Iteration  7        0.000128168001     -113.144660939785
 Iteration  8        0.000038581655     -113.144661209968
 Iteration  9        0.000012527538     -113.144661151192
 Iteration 10        0.000003636475     -113.144660964324
 
 CCSD iteration has converged in 10 steps.
    76129.81 MB memory was utilized by CCSD
 
 T1 diagnostic:      1.927E-02            D1 diagnostic:      4.031E-02
 
 T1 contribution [au]:                                  0.000000000000
 Opposite spin CCSD energy [au]:                       -0.287505361972
 Same spin CCSD energy [au]:                           -0.078538236860
 CCSD correlation energy [au]:                         -0.366043598832
 Total CCSD energy [au]:                             -113.144660964324
 
 CPU time [min]:   144.035                   Wall time [min]:     4.188
 
 Calculation of (T) correction...
 
 
     4667.69 MB memory is utilized for (T)

 0%       25%       50%       75%       100%
 |---------|---------|---------|---------| 
 
 (T) correction [au]:                                    -0.018170130145
 CCSD(T) correlation energy [au]:                        -0.384213728977
 Total CCSD(T) energy [au]:                            -113.162831094470
 
 CPU time [min]:   152.428                   Wall time [min]:     4.540
 
 ************************ 2023-05-25 21:23:21 *************************
                      Normal termination of mrcc.
 **********************************************************************
