 **********************************************************************
                          MRCC program system
 **********************************************************************
 
                              Written by
     Mihaly Kallay, Peter R. Nagy, David Mester, Laszlo Gyevi-Nagy,
        Jozsef Csoka, P. Bernat Szabo, Zoltan Rolik, Gyula Samu,
     Jozsef Csontos, Bence Hegely, Adam Ganyecz, Istvan Ladjanszki,
       Lorant Szegedy, Bence Ladoczki, Klara Petrov, Mate Farkas,
                    Pal D. Mezei, and Reka A. Horvath
 
        Department of Physical Chemistry and Materials Science
            Budapest University of Technology and Economics
                  Budapest P.O.Box 91, H-1521 Hungary
 
                              www.mrcc.hu
 
                      Release date: March 18, 2022

 ************************ 2023-04-26 04:02:16 *************************
 Executing minp...

 Reading input from MINP...
 
 Input file:
 
calc=DF-MP2
scftype=rhf
verbosity=3
mem=200GB
symm=off
unit=angs
scfiguess=small
scfmaxit=1000
scfalg=locfit1



charge=0
core=2

basis=special
aug-cc-pVDZ
aug-cc-pVDZ
bse_CVDZ
aug-cc-pVDZ
aug-cc-pVDZ
aug-cc-pVDZ
aug-cc-pVDZ
aug-cc-pVDZ
bse_CVDZ
bse_CVDZ
bse_CVDZ
bse_CVDZ
bse_CVDZ
bse_CVDZ
bse_CVDZ
bse_CVDZ
aug-cc-pVDZ
aug-cc-pVDZ
aug-cc-pVDZ
aug-cc-pVDZ
bse_CVDZ
bse_CVDZ
bse_CVDZ
bse_CVDZ
bse_CVDZ
aug-cc-pVDZ
aug-cc-pVDZ
aug-cc-pVDZ
aug-cc-pVDZ
aug-cc-pVDZ
aug-cc-pVDZ
aug-cc-pVDZ
aug-cc-pVDZ
aug-cc-pVDZ
aug-cc-pVDZ
aug-cc-pVDZ
aug-cc-pVDZ
aug-cc-pVDZ
aug-cc-pVDZ
aug-cc-pVDZ
aug-cc-pVDZ
bse_CVDZ
bse_CVDZ
bse_CVDZ
bse_CVDZ
bse_CVDZ
bse_CVDZ
bse_CVDZ
bse_CVDZ
bse_CVDZ
bse_CVDZ
bse_CVDZ
bse_CVDZ
aug-cc-pVDZ
aug-cc-pVDZ
aug-cc-pVDZ
aug-cc-pVDZ
aug-cc-pVDZ
aug-cc-pVDZ
aug-cc-pVDZ
aug-cc-pVDZ
aug-cc-pVDZ
aug-cc-pVDZ
aug-cc-pVDZ
aug-cc-pVDZ
aug-cc-pVDZ
aug-cc-pVDZ
aug-cc-pVDZ
aug-cc-pVDZ
aug-cc-pVDZ
aug-cc-pVDZ
aug-cc-pVDZ
aug-cc-pVDZ
aug-cc-pVDZ
aug-cc-pVDZ
aug-cc-pVDZ
aug-cc-pVDZ
aug-cc-pVDZ
aug-cc-pVDZ
aug-cc-pVDZ
aug-cc-pVDZ
aug-cc-pVDZ
aug-cc-pVDZ
aug-cc-pVDZ
aug-cc-pVDZ
aug-cc-pVDZ

basis_sm=special
def2-SVP
def2-SVP
def2-SVP
def2-SVP
def2-SVP
def2-SVP
def2-SVP
def2-SVP
def2-SVP
def2-SVP
def2-SVP
def2-SVP
def2-SVP
def2-SVP
def2-SVP
def2-SVP
def2-SVP
def2-SVP
def2-SVP
def2-SVP
def2-SVP
def2-SVP
def2-SVP
def2-SVP
def2-SVP
def2-SVP
def2-SVP
def2-SVP
def2-SVP
def2-SVP
def2-SVP
def2-SVP
def2-SVP
def2-SVP
def2-SVP
def2-SVP
def2-SVP
def2-SVP
def2-SVP
def2-SVP
def2-SVP
def2-SVP
def2-SVP
def2-SVP
def2-SVP
def2-SVP
def2-SVP
def2-SVP
def2-SVP
def2-SVP
def2-SVP
def2-SVP
def2-SVP
def2-SVP
def2-SVP
def2-SVP
def2-SVP
def2-SVP
def2-SVP
def2-SVP
def2-SVP
def2-SVP
def2-SVP
def2-SVP
def2-SVP
def2-SVP
def2-SVP
def2-SVP
def2-SVP
def2-SVP
def2-SVP
def2-SVP
def2-SVP
def2-SVP
def2-SVP
def2-SVP
def2-SVP
def2-SVP
def2-SVP
def2-SVP
def2-SVP
def2-SVP
def2-SVP
def2-SVP
def2-SVP
def2-SVP

dfbasis_scf=special
def2-QZVPP-RI-JK
def2-QZVPP-RI-JK
def2-QZVPP-RI-JK
def2-QZVPP-RI-JK
def2-QZVPP-RI-JK
def2-QZVPP-RI-JK
def2-QZVPP-RI-JK
def2-QZVPP-RI-JK
def2-QZVPP-RI-JK
def2-QZVPP-RI-JK
def2-QZVPP-RI-JK
def2-QZVPP-RI-JK
def2-QZVPP-RI-JK
def2-QZVPP-RI-JK
def2-QZVPP-RI-JK
def2-QZVPP-RI-JK
def2-QZVPP-RI-JK
def2-QZVPP-RI-JK
def2-QZVPP-RI-JK
def2-QZVPP-RI-JK
def2-QZVPP-RI-JK
def2-QZVPP-RI-JK
def2-QZVPP-RI-JK
def2-QZVPP-RI-JK
def2-QZVPP-RI-JK
def2-QZVPP-RI-JK
def2-QZVPP-RI-JK
def2-QZVPP-RI-JK
def2-QZVPP-RI-JK
def2-QZVPP-RI-JK
def2-QZVPP-RI-JK
def2-QZVPP-RI-JK
def2-QZVPP-RI-JK
def2-QZVPP-RI-JK
def2-QZVPP-RI-JK
def2-QZVPP-RI-JK
def2-QZVPP-RI-JK
def2-QZVPP-RI-JK
def2-QZVPP-RI-JK
def2-QZVPP-RI-JK
def2-QZVPP-RI-JK
def2-QZVPP-RI-JK
def2-QZVPP-RI-JK
def2-QZVPP-RI-JK
def2-QZVPP-RI-JK
def2-QZVPP-RI-JK
def2-QZVPP-RI-JK
def2-QZVPP-RI-JK
def2-QZVPP-RI-JK
def2-QZVPP-RI-JK
def2-QZVPP-RI-JK
def2-QZVPP-RI-JK
def2-QZVPP-RI-JK
def2-QZVPP-RI-JK
def2-QZVPP-RI-JK
def2-QZVPP-RI-JK
def2-QZVPP-RI-JK
def2-QZVPP-RI-JK
def2-QZVPP-RI-JK
def2-QZVPP-RI-JK
def2-QZVPP-RI-JK
def2-QZVPP-RI-JK
def2-QZVPP-RI-JK
def2-QZVPP-RI-JK
def2-QZVPP-RI-JK
def2-QZVPP-RI-JK
def2-QZVPP-RI-JK
def2-QZVPP-RI-JK
def2-QZVPP-RI-JK
def2-QZVPP-RI-JK
def2-QZVPP-RI-JK
def2-QZVPP-RI-JK
def2-QZVPP-RI-JK
def2-QZVPP-RI-JK
def2-QZVPP-RI-JK
def2-QZVPP-RI-JK
def2-QZVPP-RI-JK
def2-QZVPP-RI-JK
def2-QZVPP-RI-JK
def2-QZVPP-RI-JK
def2-QZVPP-RI-JK
def2-QZVPP-RI-JK
def2-QZVPP-RI-JK
def2-QZVPP-RI-JK
def2-QZVPP-RI-JK
def2-QZVPP-RI-JK

dfbasis_cor=special
aug-cc-pVDZ-RI
aug-cc-pVDZ-RI
bse_CVDZ_mp2fit
aug-cc-pVDZ-RI
aug-cc-pVDZ-RI
aug-cc-pVDZ-RI
aug-cc-pVDZ-RI
aug-cc-pVDZ-RI
bse_CVDZ_mp2fit
bse_CVDZ_mp2fit
bse_CVDZ_mp2fit
bse_CVDZ_mp2fit
bse_CVDZ_mp2fit
bse_CVDZ_mp2fit
bse_CVDZ_mp2fit
bse_CVDZ_mp2fit
aug-cc-pVDZ-RI
aug-cc-pVDZ-RI
aug-cc-pVDZ-RI
aug-cc-pVDZ-RI
bse_CVDZ_mp2fit
bse_CVDZ_mp2fit
bse_CVDZ_mp2fit
bse_CVDZ_mp2fit
bse_CVDZ_mp2fit
aug-cc-pVDZ-RI
aug-cc-pVDZ-RI
aug-cc-pVDZ-RI
aug-cc-pVDZ-RI
aug-cc-pVDZ-RI
aug-cc-pVDZ-RI
aug-cc-pVDZ-RI
aug-cc-pVDZ-RI
aug-cc-pVDZ-RI
aug-cc-pVDZ-RI
aug-cc-pVDZ-RI
aug-cc-pVDZ-RI
aug-cc-pVDZ-RI
aug-cc-pVDZ-RI
aug-cc-pVDZ-RI
aug-cc-pVDZ-RI
bse_CVDZ_mp2fit
bse_CVDZ_mp2fit
bse_CVDZ_mp2fit
bse_CVDZ_mp2fit
bse_CVDZ_mp2fit
bse_CVDZ_mp2fit
bse_CVDZ_mp2fit
bse_CVDZ_mp2fit
bse_CVDZ_mp2fit
bse_CVDZ_mp2fit
bse_CVDZ_mp2fit
bse_CVDZ_mp2fit
aug-cc-pVDZ-RI
aug-cc-pVDZ-RI
aug-cc-pVDZ-RI
aug-cc-pVDZ-RI
aug-cc-pVDZ-RI
aug-cc-pVDZ-RI
aug-cc-pVDZ-RI
aug-cc-pVDZ-RI
aug-cc-pVDZ-RI
aug-cc-pVDZ-RI
aug-cc-pVDZ-RI
aug-cc-pVDZ-RI
aug-cc-pVDZ-RI
aug-cc-pVDZ-RI
aug-cc-pVDZ-RI
aug-cc-pVDZ-RI
aug-cc-pVDZ-RI
aug-cc-pVDZ-RI
aug-cc-pVDZ-RI
aug-cc-pVDZ-RI
aug-cc-pVDZ-RI
aug-cc-pVDZ-RI
aug-cc-pVDZ-RI
aug-cc-pVDZ-RI
aug-cc-pVDZ-RI
aug-cc-pVDZ-RI
aug-cc-pVDZ-RI
aug-cc-pVDZ-RI
aug-cc-pVDZ-RI
aug-cc-pVDZ-RI
aug-cc-pVDZ-RI
aug-cc-pVDZ-RI
aug-cc-pVDZ-RI

ecp=special
none
none
none
none
none
none
none
none
none
none
none
none
none
none
none
none
none
none
none
none
none
none
none
none
none
none
none
none
none
none
none
none
none
none
none
none
none
none
none
none
none
none
none
none
none
none
none
none
none
none
none
none
none
none
none
none
none
none
none
none
none
none
none
none
none
none
none
none
none
none
none
none
none
none
none
none
none
none
none
none
none
none
none
none
none
none

unit=angs
geom=xyz
86
C1 O1 Mg26 O58 ECP112
C     0.00000000000    0.00000000000    2.43329433571
O     0.00000000000    0.00000000000    3.58011415037
Mg    0.00000000000    0.00000000000   -0.00772802266
O    -2.12018425659    0.00000000000   -0.00205593177
O     0.00000000000    2.12018425659   -0.00205593177
O     2.12018425659    0.00000000000   -0.00205593177
O     0.00000000000   -2.12018425659   -0.00205593177
O     0.00000000000    0.00000000000   -2.14902768389
Mg   -2.11144262254    2.11144262254   -0.05140086690
Mg    2.11144262254    2.11144262254   -0.05140086690
Mg    2.11144262254   -2.11144262254   -0.05140086690
Mg   -2.11144262254   -2.11144262254   -0.05140086690
Mg   -2.10705287155    0.00000000000   -2.14928009216
Mg    0.00000000000    2.10705287155   -2.14928009216
Mg    2.10705287155    0.00000000000   -2.14928009216
Mg    0.00000000000   -2.10705287155   -2.14928009216
O    -2.11070451449    2.11070451449   -2.15696791928
O     2.11070451449    2.11070451449   -2.15696791928
O     2.11070451449   -2.11070451449   -2.15696791928
O    -2.11070451449   -2.11070451449   -2.15696791928
Mg   -4.22049352791    0.00000000000   -0.05042534122
Mg    0.00000000000    4.22049352791   -0.05042534122
Mg    4.22049352791    0.00000000000   -0.05042534122
Mg    0.00000000000   -4.22049352791   -0.05042534122
Mg    0.00000000000    0.00000000000   -4.27562330794
O    -4.22049352791    2.11209139723    0.00000000000
O    -2.11209139723    4.22049352791    0.00000000000
O     2.11209139723    4.22049352791    0.00000000000
O     4.22049352791    2.11209139723    0.00000000000
O     4.22049352791   -2.11209139723    0.00000000000
O     2.11209139723   -4.22049352791    0.00000000000
O    -2.11209139723   -4.22049352791    0.00000000000
O    -4.22049352791   -2.11209139723    0.00000000000
O    -4.22049352791    0.00000000000   -2.15902521756
O     0.00000000000    4.22049352791   -2.15902521756
O     4.22049352791    0.00000000000   -2.15902521756
O     0.00000000000   -4.22049352791   -2.15902521756
O    -2.11024676395    0.00000000000   -4.27562330794
O     0.00000000000    2.11024676395   -4.27562330794
O     2.11024676395    0.00000000000   -4.27562330794
O     0.00000000000   -2.11024676395   -4.27562330794
Mg   -4.22049352791    2.10973412517   -2.15218714568
Mg   -2.10973412517    4.22049352791   -2.15218714568
Mg    2.10973412517    4.22049352791   -2.15218714568
Mg    4.22049352791    2.10973412517   -2.15218714568
Mg    4.22049352791   -2.10973412517   -2.15218714568
Mg    2.10973412517   -4.22049352791   -2.15218714568
Mg   -2.10973412517   -4.22049352791   -2.15218714568
Mg   -4.22049352791   -2.10973412517   -2.15218714568
Mg   -4.22049352791    4.22049352791   -0.04765173215
Mg    4.22049352791    4.22049352791   -0.04765173215
Mg    4.22049352791   -4.22049352791   -0.04765173215
Mg   -4.22049352791   -4.22049352791   -0.04765173215
O    -6.32080279923    0.00000000000   -0.00205593177
O     0.00000000000    6.32080279923   -0.00205593177
O     6.32080279923    0.00000000000   -0.00205593177
O     0.00000000000   -6.32080279923   -0.00205593177
O    -4.22049352791    4.22049352791   -2.15801787533
O     4.22049352791    4.22049352791   -2.15801787533
O     4.22049352791   -4.22049352791   -2.15801787533
O    -4.22049352791   -4.22049352791   -2.15801787533
O    -4.22049352791    2.11024676395   -4.27562330794
O    -2.11024676395    4.22049352791   -4.27562330794
O     2.11024676395    4.22049352791   -4.27562330794
O     4.22049352791    2.11024676395   -4.27562330794
O     4.22049352791   -2.11024676395   -4.27562330794
O     2.11024676395   -4.22049352791   -4.27562330794
O    -2.11024676395   -4.22049352791   -4.27562330794
O    -4.22049352791   -2.11024676395   -4.27562330794
O     0.00000000000    0.00000000000   -6.38587007189
O    -6.33028254133    2.11070451449   -2.15696791928
O    -2.11070451449    6.33028254133   -2.15696791928
O     2.11070451449    6.33028254133   -2.15696791928
O     6.33028254133    2.11070451449   -2.15696791928
O     6.33028254133   -2.11070451449   -2.15696791928
O     2.11070451449   -6.33028254133   -2.15696791928
O    -2.11070451449   -6.33028254133   -2.15696791928
O    -6.33028254133   -2.11070451449   -2.15696791928
O    -6.32889565859    4.22049352791    0.00000000000
O    -4.22049352791    6.32889565859    0.00000000000
O     4.22049352791    6.32889565859    0.00000000000
O     6.32889565859    4.22049352791    0.00000000000
O     6.32889565859   -4.22049352791    0.00000000000
O     4.22049352791   -6.32889565859    0.00000000000
O    -4.22049352791   -6.32889565859    0.00000000000
O    -6.32889565859   -4.22049352791    0.00000000000

ghost=serialno
3-86

 
 
 Checking keyword combinations...
 
 Keywords:
 
 active=none
 agrid=ld0006-ld0590
 agrid_pssp=ld0006-ld0194
 agrid_pssp_sm=ld0006-ld0074
 basis=special
 basis_sm=special
 basopt=off
 bfbasis=none
 bfgsmem=10
 bfgstol=1.0d-3
 bpcompo=0.985
 bpcompv=0.98
 bpdfo=0.985
 bpocc=0.985
 bppdo=0.985
 bppdv=0.98
 bpedo=0.985
 bpedv=0.98
 calc=mp2
 ccmaxit=50
 ccprog=mrcc
 ccsdalg=disk
 ccsdmkl=seq
 ccsdrest=off
 ccsdthreads=2
 cctol=6
 charge=0
 cialg=disk
 ciguess=off
 cmpgrp=auto
 comprest=off
 core=2
 corembed=off
 csapprox=off
 cvs=off
 dboc=off
 delocsomofact=
 dendec=cholesky
 dens=0
 dfalg=lineq
 dfbasis_cab=none
 dfbasis_cor=special
 dfbasis_scf=special
 dfbasis_scf_sm=special
 dfintran=drpa
 dft=off
 dhexc=adc(2)
 diag=david
 docc=
 domrad=10.d0
 drpaalg=fit
 dual=off
 dual_df=off
 ecp=special
 edisp=off
 edisp_embed=off
 embed=off
 etemp=300
 epert=none
 eps=
 espcharge=off
 excrad=1.0
 excrad_fin=0.100000000D-02
 fitting=coulomb
 fmm=off
 fmmord=8
 freq=off
 gamma=1.d0
 gauss=spher
 geom=xyz
 gopt=off
 ghost=serialno
 gtol=7
 grdens=off
 gridbatch_cos=2000
 grtol=10
 guido_ct=off
 hamilton=dc
 iface=none
 intalg=auto
 itol=10
 laptol=1.d-2
 lccoporder=trffirst
 lcorthr=normal
 lccrest=off
 lmp2dens=on
 lnoepso=0.d0
 lnoepsv=1e-6
 boysalg=jacobi
 localcc=off
 localcorrsymm=off
 locintrf=disk
 mact=
 maxact=off
 maxdim=100
 maxex=0
 maxmicroit=100
 mcscfiguess=hf
 mem=200gb
 mmprog=
 molden=on
 mpitasks=1
 mulmet=0
 mult=
 nacto=0
 nactv=0
 naf_amp=1.d-2
 naf_cor=off
 naf_scf=off
 nafalg=albe
 naftyp=
 nchol=auto
 ndeps=1e-3
 nstate=1
 nsing=0
 nto=off
 ntrip=0
 occ=
 occri=off
 oniom=off
 oniom_eechg=off
 oniom_pcm=off
 oniom_qcorr=off
 optalg=
 optmaxit=50
 optetol=1e-6
 optex=0
 optgtol=1e-4
 optstol=1e-3
 orblocc=off
 orbloce=off
 orbloco=off
 orblocv=off
 orblocguess=cholesky
 osveps=1e-3
 ovirt=off
 ovltol=1e-7
 ovosnorb=80.0
 pcm=off
 popul=off
 pressure=100000
 pssp=off
 ptfreq=0.0
 ptthreads=2
 qro=off
 qscf=off
 qmmm=off
 redcost_exc=off
 redcost_tddft=off
 refdet=none
 rest=0
 rgrid=log3
 rism=off
 rohfcore=semicanonical
 rohftype=semicanonical
 scfalg=locfit1
 scf_conv=auto
 scfdamp=0.0d0
 scfdamp_mode=off
 scfdamp_end=1000
 scfdamp_dampstep=0.d0
 scfdamp_dtol=0.0d0
 scfdamp_maxfact=0.0d0
 scfdamp_minfact=0.0d0
 scfdiis=on
 scfdiis_dtol=0.0d0
 scfdiis_end=1000
 scfdiis_start=2
 scfdiis_step=1
 scfdiis_watch=off
 scfdiis_wrange=10
 scfdiis_wlimit=5
 scfdiis_delmax=2
 scfdtol=7
 scfext=10
 scfguessdens=
 scfiguess=small
 scfloc=pm
 scflshift=0.20
 scflshift_end=8
 scflshift_dtol=0.0
 scflshift_gaptol=0.20
 scfmaxit=1000
 scftype=rhf
 scftol=6
 scspe=1.d0
 scsph=1.d0
 scsps=1.2d0
 scsps_t=1.2d0
 scspt=0.33333333333333
 scspt_t=0.33333333333333
 scspv=1.d0
 spairtol=1e-4
 sqmprog=
 subminp=top
 symm=0
 talg=occ
 temp=298.15
 test=off
 theodore=off
 tlmo=0.999
 tpao=0.94
 tprint=off
 uncontract=off
 unit=angs
 usedisk=2
 verbosity=3
 wpairtol=0.100000000E-05
 
 Calculating integrals for small-basis SCF...

 ************************ 2023-04-26 04:02:19 *************************
 Executing integ...

 Allocation of 200.0 Gbytes of memory...
 
 
 Number of atoms:                 86
 Charge:                           0
 Number of electrons:             14
 Number of core electrons:         4
 Spin multiplicity:                1
 
                 Cartesian coordinates [bohr]      Atomic mass [AMU]  Z
   1  C     0.00000000    0.00000000    4.59825988    12.000000       6
   2  O     0.00000000    0.00000000    6.76543524    15.994915       8
   3  Mg    0.00000000    0.00000000   -0.01460385     0.000000       0
   4  O    -4.00656758    0.00000000   -0.00388515     0.000000       0
   5  O     0.00000000    4.00656758   -0.00388515     0.000000       0
   6  O     4.00656758    0.00000000   -0.00388515     0.000000       0
   7  O     0.00000000   -4.00656758   -0.00388515     0.000000       0
   8  O     0.00000000    0.00000000   -4.06107376     0.000000       0
   9  Mg   -3.99004829    3.99004829   -0.09713356     0.000000       0
  10  Mg    3.99004829    3.99004829   -0.09713356     0.000000       0
  11  Mg    3.99004829   -3.99004829   -0.09713356     0.000000       0
  12  Mg   -3.99004829   -3.99004829   -0.09713356     0.000000       0
  13  Mg   -3.98175286    0.00000000   -4.06155074     0.000000       0
  14  Mg    0.00000000    3.98175286   -4.06155074     0.000000       0
  15  Mg    3.98175286    0.00000000   -4.06155074     0.000000       0
  16  Mg    0.00000000   -3.98175286   -4.06155074     0.000000       0
  17  O    -3.98865346    3.98865346   -4.07607863     0.000000       0
  18  O     3.98865346    3.98865346   -4.07607863     0.000000       0
  19  O     3.98865346   -3.98865346   -4.07607863     0.000000       0
  20  O    -3.98865346   -3.98865346   -4.07607863     0.000000       0
  21  Mg   -7.97557688    0.00000000   -0.09529008     0.000000       0
  22  Mg    0.00000000    7.97557688   -0.09529008     0.000000       0
  23  Mg    7.97557688    0.00000000   -0.09529008     0.000000       0
  24  Mg    0.00000000   -7.97557688   -0.09529008     0.000000       0
  25  Mg    0.00000000    0.00000000   -8.07975707     0.000000       0
  26  O    -7.97557688    3.99127429    0.00000000     0.000000       0
  27  O    -3.99127429    7.97557688    0.00000000     0.000000       0
  28  O     3.99127429    7.97557688    0.00000000     0.000000       0
  29  O     7.97557688    3.99127429    0.00000000     0.000000       0
  30  O     7.97557688   -3.99127429    0.00000000     0.000000       0
  31  O     3.99127429   -7.97557688    0.00000000     0.000000       0
  32  O    -3.99127429   -7.97557688    0.00000000     0.000000       0
  33  O    -7.97557688   -3.99127429    0.00000000     0.000000       0
  34  O    -7.97557688    0.00000000   -4.07996636     0.000000       0
  35  O     0.00000000    7.97557688   -4.07996636     0.000000       0
  36  O     7.97557688    0.00000000   -4.07996636     0.000000       0
  37  O     0.00000000   -7.97557688   -4.07996636     0.000000       0
  38  O    -3.98778844    0.00000000   -8.07975707     0.000000       0
  39  O     0.00000000    3.98778844   -8.07975707     0.000000       0
  40  O     3.98778844    0.00000000   -8.07975707     0.000000       0
  41  O     0.00000000   -3.98778844   -8.07975707     0.000000       0
  42  Mg   -7.97557688    3.98681969   -4.06704428     0.000000       0
  43  Mg   -3.98681969    7.97557688   -4.06704428     0.000000       0
  44  Mg    3.98681969    7.97557688   -4.06704428     0.000000       0
  45  Mg    7.97557688    3.98681969   -4.06704428     0.000000       0
  46  Mg    7.97557688   -3.98681969   -4.06704428     0.000000       0
  47  Mg    3.98681969   -7.97557688   -4.06704428     0.000000       0
  48  Mg   -3.98681969   -7.97557688   -4.06704428     0.000000       0
  49  Mg   -7.97557688   -3.98681969   -4.06704428     0.000000       0
  50  Mg   -7.97557688    7.97557688   -0.09004872     0.000000       0
  51  Mg    7.97557688    7.97557688   -0.09004872     0.000000       0
  52  Mg    7.97557688   -7.97557688   -0.09004872     0.000000       0
  53  Mg   -7.97557688   -7.97557688   -0.09004872     0.000000       0
  54  O   -11.94458618    0.00000000   -0.00388515     0.000000       0
  55  O     0.00000000   11.94458618   -0.00388515     0.000000       0
  56  O    11.94458618    0.00000000   -0.00388515     0.000000       0
  57  O     0.00000000  -11.94458618   -0.00388515     0.000000       0
  58  O    -7.97557688    7.97557688   -4.07806276     0.000000       0
  59  O     7.97557688    7.97557688   -4.07806276     0.000000       0
  60  O     7.97557688   -7.97557688   -4.07806276     0.000000       0
  61  O    -7.97557688   -7.97557688   -4.07806276     0.000000       0
  62  O    -7.97557688    3.98778844   -8.07975707     0.000000       0
  63  O    -3.98778844    7.97557688   -8.07975707     0.000000       0
  64  O     3.98778844    7.97557688   -8.07975707     0.000000       0
  65  O     7.97557688    3.98778844   -8.07975707     0.000000       0
  66  O     7.97557688   -3.98778844   -8.07975707     0.000000       0
  67  O     3.98778844   -7.97557688   -8.07975707     0.000000       0
  68  O    -3.98778844   -7.97557688   -8.07975707     0.000000       0
  69  O    -7.97557688   -3.98778844   -8.07975707     0.000000       0
  70  O     0.00000000    0.00000000  -12.06754551     0.000000       0
  71  O   -11.96250030    3.98865346   -4.07607863     0.000000       0
  72  O    -3.98865346   11.96250030   -4.07607863     0.000000       0
  73  O     3.98865346   11.96250030   -4.07607863     0.000000       0
  74  O    11.96250030    3.98865346   -4.07607863     0.000000       0
  75  O    11.96250030   -3.98865346   -4.07607863     0.000000       0
  76  O     3.98865346  -11.96250030   -4.07607863     0.000000       0
  77  O    -3.98865346  -11.96250030   -4.07607863     0.000000       0
  78  O   -11.96250030   -3.98865346   -4.07607863     0.000000       0
  79  O   -11.95987947    7.97557688    0.00000000     0.000000       0
  80  O    -7.97557688   11.95987947    0.00000000     0.000000       0
  81  O     7.97557688   11.95987947    0.00000000     0.000000       0
  82  O    11.95987947    7.97557688    0.00000000     0.000000       0
  83  O    11.95987947   -7.97557688    0.00000000     0.000000       0
  84  O     7.97557688  -11.95987947    0.00000000     0.000000       0
  85  O    -7.97557688  -11.95987947    0.00000000     0.000000       0
  86  O   -11.95987947   -7.97557688    0.00000000     0.000000       0
 
 This molecule is an oblate symmetric top.
 
 Point group: C4v 
 Computational point group: C1  
 
 Cartesian coordinates in standard orientation [bohr]
   1  C     0.00000000   -0.00000000    6.16601664
   2  O     0.00000000   -0.00000000    8.33319201
   3  Mg    0.00000000   -0.00000000    1.55315292
   4  O     4.00656758    0.00000000    1.56387162
   5  O     0.00000000   -4.00656758    1.56387162
   6  O    -4.00656758   -0.00000000    1.56387162
   7  O    -0.00000000    4.00656758    1.56387162
   8  O     0.00000000   -0.00000000   -2.49331699
   9  Mg    3.99004829   -3.99004829    1.47062320
  10  Mg   -3.99004829   -3.99004829    1.47062320
  11  Mg   -3.99004829    3.99004829    1.47062320
  12  Mg    3.99004829    3.99004829    1.47062320
  13  Mg    3.98175286    0.00000000   -2.49379398
  14  Mg    0.00000000   -3.98175286   -2.49379398
  15  Mg   -3.98175286   -0.00000000   -2.49379398
  16  Mg   -0.00000000    3.98175286   -2.49379398
  17  O     3.98865346   -3.98865346   -2.50832186
  18  O    -3.98865346   -3.98865346   -2.50832186
  19  O    -3.98865346    3.98865346   -2.50832186
  20  O     3.98865346    3.98865346   -2.50832186
  21  Mg    7.97557688    0.00000000    1.47246668
  22  Mg    0.00000000   -7.97557688    1.47246668
  23  Mg   -7.97557688   -0.00000000    1.47246668
  24  Mg   -0.00000000    7.97557688    1.47246668
  25  Mg    0.00000000   -0.00000000   -6.51200030
  26  O     7.97557688   -3.99127429    1.56775676
  27  O     3.99127429   -7.97557688    1.56775676
  28  O    -3.99127429   -7.97557688    1.56775676
  29  O    -7.97557688   -3.99127429    1.56775676
  30  O    -7.97557688    3.99127429    1.56775676
  31  O    -3.99127429    7.97557688    1.56775676
  32  O     3.99127429    7.97557688    1.56775676
  33  O     7.97557688    3.99127429    1.56775676
  34  O     7.97557688    0.00000000   -2.51220959
  35  O     0.00000000   -7.97557688   -2.51220959
  36  O    -7.97557688   -0.00000000   -2.51220959
  37  O    -0.00000000    7.97557688   -2.51220959
  38  O     3.98778844    0.00000000   -6.51200030
  39  O     0.00000000   -3.98778844   -6.51200030
  40  O    -3.98778844   -0.00000000   -6.51200030
  41  O    -0.00000000    3.98778844   -6.51200030
  42  Mg    7.97557688   -3.98681969   -2.49928751
  43  Mg    3.98681969   -7.97557688   -2.49928751
  44  Mg   -3.98681969   -7.97557688   -2.49928751
  45  Mg   -7.97557688   -3.98681969   -2.49928751
  46  Mg   -7.97557688    3.98681969   -2.49928751
  47  Mg   -3.98681969    7.97557688   -2.49928751
  48  Mg    3.98681969    7.97557688   -2.49928751
  49  Mg    7.97557688    3.98681969   -2.49928751
  50  Mg    7.97557688   -7.97557688    1.47770804
  51  Mg   -7.97557688   -7.97557688    1.47770804
  52  Mg   -7.97557688    7.97557688    1.47770804
  53  Mg    7.97557688    7.97557688    1.47770804
  54  O    11.94458618    0.00000000    1.56387162
  55  O     0.00000000  -11.94458618    1.56387162
  56  O   -11.94458618   -0.00000000    1.56387162
  57  O    -0.00000000   11.94458618    1.56387162
  58  O     7.97557688   -7.97557688   -2.51030599
  59  O    -7.97557688   -7.97557688   -2.51030599
  60  O    -7.97557688    7.97557688   -2.51030599
  61  O     7.97557688    7.97557688   -2.51030599
  62  O     7.97557688   -3.98778844   -6.51200030
  63  O     3.98778844   -7.97557688   -6.51200030
  64  O    -3.98778844   -7.97557688   -6.51200030
  65  O    -7.97557688   -3.98778844   -6.51200030
  66  O    -7.97557688    3.98778844   -6.51200030
  67  O    -3.98778844    7.97557688   -6.51200030
  68  O     3.98778844    7.97557688   -6.51200030
  69  O     7.97557688    3.98778844   -6.51200030
  70  O     0.00000000   -0.00000000  -10.49978874
  71  O    11.96250030   -3.98865346   -2.50832186
  72  O     3.98865346  -11.96250030   -2.50832186
  73  O    -3.98865346  -11.96250030   -2.50832186
  74  O   -11.96250030   -3.98865346   -2.50832186
  75  O   -11.96250030    3.98865346   -2.50832186
  76  O    -3.98865346   11.96250030   -2.50832186
  77  O     3.98865346   11.96250030   -2.50832186
  78  O    11.96250030    3.98865346   -2.50832186
  79  O    11.95987947   -7.97557688    1.56775676
  80  O     7.97557688  -11.95987947    1.56775676
  81  O    -7.97557688  -11.95987947    1.56775676
  82  O   -11.95987947   -7.97557688    1.56775676
  83  O   -11.95987947    7.97557688    1.56775676
  84  O    -7.97557688   11.95987947    1.56775676
  85  O     7.97557688   11.95987947    1.56775676
  86  O    11.95987947    7.97557688    1.56775676
 
 Nuclear repulsion energy [au]:         22.148646010002
 
 
 Basis set information:
 
 Maximum angular momentum: g
 Maximum number of contracted Gaussians:   13
 Maximum number of primitive Gaussians:    16
 Spherical harmonic GTOs are used.
 
 
 Conventional basis set:
 
   1  C  def2-svp [ 7s 4p 1d | 3s 2p 1d ]
   2  O  def2-svp [ 7s 4p 1d | 3s 2p 1d ]
   3  Mg def2-svp [ 10s 7p 1d | 4s 3p 1d ]
   4  O  def2-svp [ 7s 4p 1d | 3s 2p 1d ]
   5  O  def2-svp [ 7s 4p 1d | 3s 2p 1d ]
   6  O  def2-svp [ 7s 4p 1d | 3s 2p 1d ]
   7  O  def2-svp [ 7s 4p 1d | 3s 2p 1d ]
   8  O  def2-svp [ 7s 4p 1d | 3s 2p 1d ]
   9  Mg def2-svp [ 10s 7p 1d | 4s 3p 1d ]
  10  Mg def2-svp [ 10s 7p 1d | 4s 3p 1d ]
  11  Mg def2-svp [ 10s 7p 1d | 4s 3p 1d ]
  12  Mg def2-svp [ 10s 7p 1d | 4s 3p 1d ]
  13  Mg def2-svp [ 10s 7p 1d | 4s 3p 1d ]
  14  Mg def2-svp [ 10s 7p 1d | 4s 3p 1d ]
  15  Mg def2-svp [ 10s 7p 1d | 4s 3p 1d ]
  16  Mg def2-svp [ 10s 7p 1d | 4s 3p 1d ]
  17  O  def2-svp [ 7s 4p 1d | 3s 2p 1d ]
  18  O  def2-svp [ 7s 4p 1d | 3s 2p 1d ]
  19  O  def2-svp [ 7s 4p 1d | 3s 2p 1d ]
  20  O  def2-svp [ 7s 4p 1d | 3s 2p 1d ]
  21  Mg def2-svp [ 10s 7p 1d | 4s 3p 1d ]
  22  Mg def2-svp [ 10s 7p 1d | 4s 3p 1d ]
  23  Mg def2-svp [ 10s 7p 1d | 4s 3p 1d ]
  24  Mg def2-svp [ 10s 7p 1d | 4s 3p 1d ]
  25  Mg def2-svp [ 10s 7p 1d | 4s 3p 1d ]
  26  O  def2-svp [ 7s 4p 1d | 3s 2p 1d ]
  27  O  def2-svp [ 7s 4p 1d | 3s 2p 1d ]
  28  O  def2-svp [ 7s 4p 1d | 3s 2p 1d ]
  29  O  def2-svp [ 7s 4p 1d | 3s 2p 1d ]
  30  O  def2-svp [ 7s 4p 1d | 3s 2p 1d ]
  31  O  def2-svp [ 7s 4p 1d | 3s 2p 1d ]
  32  O  def2-svp [ 7s 4p 1d | 3s 2p 1d ]
  33  O  def2-svp [ 7s 4p 1d | 3s 2p 1d ]
  34  O  def2-svp [ 7s 4p 1d | 3s 2p 1d ]
  35  O  def2-svp [ 7s 4p 1d | 3s 2p 1d ]
  36  O  def2-svp [ 7s 4p 1d | 3s 2p 1d ]
  37  O  def2-svp [ 7s 4p 1d | 3s 2p 1d ]
  38  O  def2-svp [ 7s 4p 1d | 3s 2p 1d ]
  39  O  def2-svp [ 7s 4p 1d | 3s 2p 1d ]
  40  O  def2-svp [ 7s 4p 1d | 3s 2p 1d ]
  41  O  def2-svp [ 7s 4p 1d | 3s 2p 1d ]
  42  Mg def2-svp [ 10s 7p 1d | 4s 3p 1d ]
  43  Mg def2-svp [ 10s 7p 1d | 4s 3p 1d ]
  44  Mg def2-svp [ 10s 7p 1d | 4s 3p 1d ]
  45  Mg def2-svp [ 10s 7p 1d | 4s 3p 1d ]
  46  Mg def2-svp [ 10s 7p 1d | 4s 3p 1d ]
  47  Mg def2-svp [ 10s 7p 1d | 4s 3p 1d ]
  48  Mg def2-svp [ 10s 7p 1d | 4s 3p 1d ]
  49  Mg def2-svp [ 10s 7p 1d | 4s 3p 1d ]
  50  Mg def2-svp [ 10s 7p 1d | 4s 3p 1d ]
  51  Mg def2-svp [ 10s 7p 1d | 4s 3p 1d ]
  52  Mg def2-svp [ 10s 7p 1d | 4s 3p 1d ]
  53  Mg def2-svp [ 10s 7p 1d | 4s 3p 1d ]
  54  O  def2-svp [ 7s 4p 1d | 3s 2p 1d ]
  55  O  def2-svp [ 7s 4p 1d | 3s 2p 1d ]
  56  O  def2-svp [ 7s 4p 1d | 3s 2p 1d ]
  57  O  def2-svp [ 7s 4p 1d | 3s 2p 1d ]
  58  O  def2-svp [ 7s 4p 1d | 3s 2p 1d ]
  59  O  def2-svp [ 7s 4p 1d | 3s 2p 1d ]
  60  O  def2-svp [ 7s 4p 1d | 3s 2p 1d ]
  61  O  def2-svp [ 7s 4p 1d | 3s 2p 1d ]
  62  O  def2-svp [ 7s 4p 1d | 3s 2p 1d ]
  63  O  def2-svp [ 7s 4p 1d | 3s 2p 1d ]
  64  O  def2-svp [ 7s 4p 1d | 3s 2p 1d ]
  65  O  def2-svp [ 7s 4p 1d | 3s 2p 1d ]
  66  O  def2-svp [ 7s 4p 1d | 3s 2p 1d ]
  67  O  def2-svp [ 7s 4p 1d | 3s 2p 1d ]
  68  O  def2-svp [ 7s 4p 1d | 3s 2p 1d ]
  69  O  def2-svp [ 7s 4p 1d | 3s 2p 1d ]
  70  O  def2-svp [ 7s 4p 1d | 3s 2p 1d ]
  71  O  def2-svp [ 7s 4p 1d | 3s 2p 1d ]
  72  O  def2-svp [ 7s 4p 1d | 3s 2p 1d ]
  73  O  def2-svp [ 7s 4p 1d | 3s 2p 1d ]
  74  O  def2-svp [ 7s 4p 1d | 3s 2p 1d ]
  75  O  def2-svp [ 7s 4p 1d | 3s 2p 1d ]
  76  O  def2-svp [ 7s 4p 1d | 3s 2p 1d ]
  77  O  def2-svp [ 7s 4p 1d | 3s 2p 1d ]
  78  O  def2-svp [ 7s 4p 1d | 3s 2p 1d ]
  79  O  def2-svp [ 7s 4p 1d | 3s 2p 1d ]
  80  O  def2-svp [ 7s 4p 1d | 3s 2p 1d ]
  81  O  def2-svp [ 7s 4p 1d | 3s 2p 1d ]
  82  O  def2-svp [ 7s 4p 1d | 3s 2p 1d ]
  83  O  def2-svp [ 7s 4p 1d | 3s 2p 1d ]
  84  O  def2-svp [ 7s 4p 1d | 3s 2p 1d ]
  85  O  def2-svp [ 7s 4p 1d | 3s 2p 1d ]
  86  O  def2-svp [ 7s 4p 1d | 3s 2p 1d ]
 
 Basis functions:
            1             2             3             4             5             6             7             8             9            10
    0    1C1s          1C2s          1C3s          1C1pz         1C1py         1C1px         1C2pz         1C2py         1C2px         1C1d-2    
    1    1C1d-1        1C1d0         1C1d+1        1C1d+2        2O1s          2O2s          2O3s          2O1pz         2O1py         2O1px     
    2    2O2pz         2O2py         2O2px         2O1d-2        2O1d-1        2O1d0         2O1d+1        2O1d+2        3Mg1s         3Mg2s     
    3    3Mg3s         3Mg4s         3Mg1pz        3Mg1py        3Mg1px        3Mg2pz        3Mg2py        3Mg2px        3Mg3pz        3Mg3py    
    4    3Mg3px        3Mg1d-2       3Mg1d-1       3Mg1d0        3Mg1d+1       3Mg1d+2       4O1s          4O2s          4O3s          4O1pz     
    5    4O1py         4O1px         4O2pz         4O2py         4O2px         4O1d-2        4O1d-1        4O1d0         4O1d+1        4O1d+2    
    6    5O1s          5O2s          5O3s          5O1pz         5O1py         5O1px         5O2pz         5O2py         5O2px         5O1d-2    
    7    5O1d-1        5O1d0         5O1d+1        5O1d+2        6O1s          6O2s          6O3s          6O1pz         6O1py         6O1px     
    8    6O2pz         6O2py         6O2px         6O1d-2        6O1d-1        6O1d0         6O1d+1        6O1d+2        7O1s          7O2s      
    9    7O3s          7O1pz         7O1py         7O1px         7O2pz         7O2py         7O2px         7O1d-2        7O1d-1        7O1d0     
   10    7O1d+1        7O1d+2        8O1s          8O2s          8O3s          8O1pz         8O1py         8O1px         8O2pz         8O2py     
   11    8O2px         8O1d-2        8O1d-1        8O1d0         8O1d+1        8O1d+2        9Mg1s         9Mg2s         9Mg3s         9Mg4s     
   12    9Mg1pz        9Mg1py        9Mg1px        9Mg2pz        9Mg2py        9Mg2px        9Mg3pz        9Mg3py        9Mg3px        9Mg1d-2   
   13    9Mg1d-1       9Mg1d0        9Mg1d+1       9Mg1d+2      10Mg1s        10Mg2s        10Mg3s        10Mg4s        10Mg1pz       10Mg1py    
   14   10Mg1px       10Mg2pz       10Mg2py       10Mg2px       10Mg3pz       10Mg3py       10Mg3px       10Mg1d-2      10Mg1d-1      10Mg1d0    
   15   10Mg1d+1      10Mg1d+2      11Mg1s        11Mg2s        11Mg3s        11Mg4s        11Mg1pz       11Mg1py       11Mg1px       11Mg2pz    
   16   11Mg2py       11Mg2px       11Mg3pz       11Mg3py       11Mg3px       11Mg1d-2      11Mg1d-1      11Mg1d0       11Mg1d+1      11Mg1d+2   
   17   12Mg1s        12Mg2s        12Mg3s        12Mg4s        12Mg1pz       12Mg1py       12Mg1px       12Mg2pz       12Mg2py       12Mg2px    
   18   12Mg3pz       12Mg3py       12Mg3px       12Mg1d-2      12Mg1d-1      12Mg1d0       12Mg1d+1      12Mg1d+2      13Mg1s        13Mg2s     
   19   13Mg3s        13Mg4s        13Mg1pz       13Mg1py       13Mg1px       13Mg2pz       13Mg2py       13Mg2px       13Mg3pz       13Mg3py    
   20   13Mg3px       13Mg1d-2      13Mg1d-1      13Mg1d0       13Mg1d+1      13Mg1d+2      14Mg1s        14Mg2s        14Mg3s        14Mg4s     
   21   14Mg1pz       14Mg1py       14Mg1px       14Mg2pz       14Mg2py       14Mg2px       14Mg3pz       14Mg3py       14Mg3px       14Mg1d-2   
   22   14Mg1d-1      14Mg1d0       14Mg1d+1      14Mg1d+2      15Mg1s        15Mg2s        15Mg3s        15Mg4s        15Mg1pz       15Mg1py    
   23   15Mg1px       15Mg2pz       15Mg2py       15Mg2px       15Mg3pz       15Mg3py       15Mg3px       15Mg1d-2      15Mg1d-1      15Mg1d0    
   24   15Mg1d+1      15Mg1d+2      16Mg1s        16Mg2s        16Mg3s        16Mg4s        16Mg1pz       16Mg1py       16Mg1px       16Mg2pz    
   25   16Mg2py       16Mg2px       16Mg3pz       16Mg3py       16Mg3px       16Mg1d-2      16Mg1d-1      16Mg1d0       16Mg1d+1      16Mg1d+2   
   26   17O1s         17O2s         17O3s         17O1pz        17O1py        17O1px        17O2pz        17O2py        17O2px        17O1d-2    
   27   17O1d-1       17O1d0        17O1d+1       17O1d+2       18O1s         18O2s         18O3s         18O1pz        18O1py        18O1px     
   28   18O2pz        18O2py        18O2px        18O1d-2       18O1d-1       18O1d0        18O1d+1       18O1d+2       19O1s         19O2s      
   29   19O3s         19O1pz        19O1py        19O1px        19O2pz        19O2py        19O2px        19O1d-2       19O1d-1       19O1d0     
   30   19O1d+1       19O1d+2       20O1s         20O2s         20O3s         20O1pz        20O1py        20O1px        20O2pz        20O2py     
   31   20O2px        20O1d-2       20O1d-1       20O1d0        20O1d+1       20O1d+2       21Mg1s        21Mg2s        21Mg3s        21Mg4s     
   32   21Mg1pz       21Mg1py       21Mg1px       21Mg2pz       21Mg2py       21Mg2px       21Mg3pz       21Mg3py       21Mg3px       21Mg1d-2   
   33   21Mg1d-1      21Mg1d0       21Mg1d+1      21Mg1d+2      22Mg1s        22Mg2s        22Mg3s        22Mg4s        22Mg1pz       22Mg1py    
   34   22Mg1px       22Mg2pz       22Mg2py       22Mg2px       22Mg3pz       22Mg3py       22Mg3px       22Mg1d-2      22Mg1d-1      22Mg1d0    
   35   22Mg1d+1      22Mg1d+2      23Mg1s        23Mg2s        23Mg3s        23Mg4s        23Mg1pz       23Mg1py       23Mg1px       23Mg2pz    
   36   23Mg2py       23Mg2px       23Mg3pz       23Mg3py       23Mg3px       23Mg1d-2      23Mg1d-1      23Mg1d0       23Mg1d+1      23Mg1d+2   
   37   24Mg1s        24Mg2s        24Mg3s        24Mg4s        24Mg1pz       24Mg1py       24Mg1px       24Mg2pz       24Mg2py       24Mg2px    
   38   24Mg3pz       24Mg3py       24Mg3px       24Mg1d-2      24Mg1d-1      24Mg1d0       24Mg1d+1      24Mg1d+2      25Mg1s        25Mg2s     
   39   25Mg3s        25Mg4s        25Mg1pz       25Mg1py       25Mg1px       25Mg2pz       25Mg2py       25Mg2px       25Mg3pz       25Mg3py    
   40   25Mg3px       25Mg1d-2      25Mg1d-1      25Mg1d0       25Mg1d+1      25Mg1d+2      26O1s         26O2s         26O3s         26O1pz     
   41   26O1py        26O1px        26O2pz        26O2py        26O2px        26O1d-2       26O1d-1       26O1d0        26O1d+1       26O1d+2    
   42   27O1s         27O2s         27O3s         27O1pz        27O1py        27O1px        27O2pz        27O2py        27O2px        27O1d-2    
   43   27O1d-1       27O1d0        27O1d+1       27O1d+2       28O1s         28O2s         28O3s         28O1pz        28O1py        28O1px     
   44   28O2pz        28O2py        28O2px        28O1d-2       28O1d-1       28O1d0        28O1d+1       28O1d+2       29O1s         29O2s      
   45   29O3s         29O1pz        29O1py        29O1px        29O2pz        29O2py        29O2px        29O1d-2       29O1d-1       29O1d0     
   46   29O1d+1       29O1d+2       30O1s         30O2s         30O3s         30O1pz        30O1py        30O1px        30O2pz        30O2py     
   47   30O2px        30O1d-2       30O1d-1       30O1d0        30O1d+1       30O1d+2       31O1s         31O2s         31O3s         31O1pz     
   48   31O1py        31O1px        31O2pz        31O2py        31O2px        31O1d-2       31O1d-1       31O1d0        31O1d+1       31O1d+2    
   49   32O1s         32O2s         32O3s         32O1pz        32O1py        32O1px        32O2pz        32O2py        32O2px        32O1d-2    
   50   32O1d-1       32O1d0        32O1d+1       32O1d+2       33O1s         33O2s         33O3s         33O1pz        33O1py        33O1px     
   51   33O2pz        33O2py        33O2px        33O1d-2       33O1d-1       33O1d0        33O1d+1       33O1d+2       34O1s         34O2s      
   52   34O3s         34O1pz        34O1py        34O1px        34O2pz        34O2py        34O2px        34O1d-2       34O1d-1       34O1d0     
   53   34O1d+1       34O1d+2       35O1s         35O2s         35O3s         35O1pz        35O1py        35O1px        35O2pz        35O2py     
   54   35O2px        35O1d-2       35O1d-1       35O1d0        35O1d+1       35O1d+2       36O1s         36O2s         36O3s         36O1pz     
   55   36O1py        36O1px        36O2pz        36O2py        36O2px        36O1d-2       36O1d-1       36O1d0        36O1d+1       36O1d+2    
   56   37O1s         37O2s         37O3s         37O1pz        37O1py        37O1px        37O2pz        37O2py        37O2px        37O1d-2    
   57   37O1d-1       37O1d0        37O1d+1       37O1d+2       38O1s         38O2s         38O3s         38O1pz        38O1py        38O1px     
   58   38O2pz        38O2py        38O2px        38O1d-2       38O1d-1       38O1d0        38O1d+1       38O1d+2       39O1s         39O2s      
   59   39O3s         39O1pz        39O1py        39O1px        39O2pz        39O2py        39O2px        39O1d-2       39O1d-1       39O1d0     
   60   39O1d+1       39O1d+2       40O1s         40O2s         40O3s         40O1pz        40O1py        40O1px        40O2pz        40O2py     
   61   40O2px        40O1d-2       40O1d-1       40O1d0        40O1d+1       40O1d+2       41O1s         41O2s         41O3s         41O1pz     
   62   41O1py        41O1px        41O2pz        41O2py        41O2px        41O1d-2       41O1d-1       41O1d0        41O1d+1       41O1d+2    
   63   42Mg1s        42Mg2s        42Mg3s        42Mg4s        42Mg1pz       42Mg1py       42Mg1px       42Mg2pz       42Mg2py       42Mg2px    
   64   42Mg3pz       42Mg3py       42Mg3px       42Mg1d-2      42Mg1d-1      42Mg1d0       42Mg1d+1      42Mg1d+2      43Mg1s        43Mg2s     
   65   43Mg3s        43Mg4s        43Mg1pz       43Mg1py       43Mg1px       43Mg2pz       43Mg2py       43Mg2px       43Mg3pz       43Mg3py    
   66   43Mg3px       43Mg1d-2      43Mg1d-1      43Mg1d0       43Mg1d+1      43Mg1d+2      44Mg1s        44Mg2s        44Mg3s        44Mg4s     
   67   44Mg1pz       44Mg1py       44Mg1px       44Mg2pz       44Mg2py       44Mg2px       44Mg3pz       44Mg3py       44Mg3px       44Mg1d-2   
   68   44Mg1d-1      44Mg1d0       44Mg1d+1      44Mg1d+2      45Mg1s        45Mg2s        45Mg3s        45Mg4s        45Mg1pz       45Mg1py    
   69   45Mg1px       45Mg2pz       45Mg2py       45Mg2px       45Mg3pz       45Mg3py       45Mg3px       45Mg1d-2      45Mg1d-1      45Mg1d0    
   70   45Mg1d+1      45Mg1d+2      46Mg1s        46Mg2s        46Mg3s        46Mg4s        46Mg1pz       46Mg1py       46Mg1px       46Mg2pz    
   71   46Mg2py       46Mg2px       46Mg3pz       46Mg3py       46Mg3px       46Mg1d-2      46Mg1d-1      46Mg1d0       46Mg1d+1      46Mg1d+2   
   72   47Mg1s        47Mg2s        47Mg3s        47Mg4s        47Mg1pz       47Mg1py       47Mg1px       47Mg2pz       47Mg2py       47Mg2px    
   73   47Mg3pz       47Mg3py       47Mg3px       47Mg1d-2      47Mg1d-1      47Mg1d0       47Mg1d+1      47Mg1d+2      48Mg1s        48Mg2s     
   74   48Mg3s        48Mg4s        48Mg1pz       48Mg1py       48Mg1px       48Mg2pz       48Mg2py       48Mg2px       48Mg3pz       48Mg3py    
   75   48Mg3px       48Mg1d-2      48Mg1d-1      48Mg1d0       48Mg1d+1      48Mg1d+2      49Mg1s        49Mg2s        49Mg3s        49Mg4s     
   76   49Mg1pz       49Mg1py       49Mg1px       49Mg2pz       49Mg2py       49Mg2px       49Mg3pz       49Mg3py       49Mg3px       49Mg1d-2   
   77   49Mg1d-1      49Mg1d0       49Mg1d+1      49Mg1d+2      50Mg1s        50Mg2s        50Mg3s        50Mg4s        50Mg1pz       50Mg1py    
   78   50Mg1px       50Mg2pz       50Mg2py       50Mg2px       50Mg3pz       50Mg3py       50Mg3px       50Mg1d-2      50Mg1d-1      50Mg1d0    
   79   50Mg1d+1      50Mg1d+2      51Mg1s        51Mg2s        51Mg3s        51Mg4s        51Mg1pz       51Mg1py       51Mg1px       51Mg2pz    
   80   51Mg2py       51Mg2px       51Mg3pz       51Mg3py       51Mg3px       51Mg1d-2      51Mg1d-1      51Mg1d0       51Mg1d+1      51Mg1d+2   
   81   52Mg1s        52Mg2s        52Mg3s        52Mg4s        52Mg1pz       52Mg1py       52Mg1px       52Mg2pz       52Mg2py       52Mg2px    
   82   52Mg3pz       52Mg3py       52Mg3px       52Mg1d-2      52Mg1d-1      52Mg1d0       52Mg1d+1      52Mg1d+2      53Mg1s        53Mg2s     
   83   53Mg3s        53Mg4s        53Mg1pz       53Mg1py       53Mg1px       53Mg2pz       53Mg2py       53Mg2px       53Mg3pz       53Mg3py    
   84   53Mg3px       53Mg1d-2      53Mg1d-1      53Mg1d0       53Mg1d+1      53Mg1d+2      54O1s         54O2s         54O3s         54O1pz     
   85   54O1py        54O1px        54O2pz        54O2py        54O2px        54O1d-2       54O1d-1       54O1d0        54O1d+1       54O1d+2    
   86   55O1s         55O2s         55O3s         55O1pz        55O1py        55O1px        55O2pz        55O2py        55O2px        55O1d-2    
   87   55O1d-1       55O1d0        55O1d+1       55O1d+2       56O1s         56O2s         56O3s         56O1pz        56O1py        56O1px     
   88   56O2pz        56O2py        56O2px        56O1d-2       56O1d-1       56O1d0        56O1d+1       56O1d+2       57O1s         57O2s      
   89   57O3s         57O1pz        57O1py        57O1px        57O2pz        57O2py        57O2px        57O1d-2       57O1d-1       57O1d0     
   90   57O1d+1       57O1d+2       58O1s         58O2s         58O3s         58O1pz        58O1py        58O1px        58O2pz        58O2py     
   91   58O2px        58O1d-2       58O1d-1       58O1d0        58O1d+1       58O1d+2       59O1s         59O2s         59O3s         59O1pz     
   92   59O1py        59O1px        59O2pz        59O2py        59O2px        59O1d-2       59O1d-1       59O1d0        59O1d+1       59O1d+2    
   93   60O1s         60O2s         60O3s         60O1pz        60O1py        60O1px        60O2pz        60O2py        60O2px        60O1d-2    
   94   60O1d-1       60O1d0        60O1d+1       60O1d+2       61O1s         61O2s         61O3s         61O1pz        61O1py        61O1px     
   95   61O2pz        61O2py        61O2px        61O1d-2       61O1d-1       61O1d0        61O1d+1       61O1d+2       62O1s         62O2s      
   96   62O3s         62O1pz        62O1py        62O1px        62O2pz        62O2py        62O2px        62O1d-2       62O1d-1       62O1d0     
   97   62O1d+1       62O1d+2       63O1s         63O2s         63O3s         63O1pz        63O1py        63O1px        63O2pz        63O2py     
   98   63O2px        63O1d-2       63O1d-1       63O1d0        63O1d+1       63O1d+2       64O1s         64O2s         64O3s         64O1pz     
   99   64O1py        64O1px        64O2pz        64O2py        64O2px        64O1d-2       64O1d-1       64O1d0        64O1d+1       64O1d+2    
  100   65O1s         65O2s         65O3s         65O1pz        65O1py        65O1px        65O2pz        65O2py        65O2px        65O1d-2    
  101   65O1d-1       65O1d0        65O1d+1       65O1d+2       66O1s         66O2s         66O3s         66O1pz        66O1py        66O1px     
  102   66O2pz        66O2py        66O2px        66O1d-2       66O1d-1       66O1d0        66O1d+1       66O1d+2       67O1s         67O2s      
  103   67O3s         67O1pz        67O1py        67O1px        67O2pz        67O2py        67O2px        67O1d-2       67O1d-1       67O1d0     
  104   67O1d+1       67O1d+2       68O1s         68O2s         68O3s         68O1pz        68O1py        68O1px        68O2pz        68O2py     
  105   68O2px        68O1d-2       68O1d-1       68O1d0        68O1d+1       68O1d+2       69O1s         69O2s         69O3s         69O1pz     
  106   69O1py        69O1px        69O2pz        69O2py        69O2px        69O1d-2       69O1d-1       69O1d0        69O1d+1       69O1d+2    
  107   70O1s         70O2s         70O3s         70O1pz        70O1py        70O1px        70O2pz        70O2py        70O2px        70O1d-2    
  108   70O1d-1       70O1d0        70O1d+1       70O1d+2       71O1s         71O2s         71O3s         71O1pz        71O1py        71O1px     
  109   71O2pz        71O2py        71O2px        71O1d-2       71O1d-1       71O1d0        71O1d+1       71O1d+2       72O1s         72O2s      
  110   72O3s         72O1pz        72O1py        72O1px        72O2pz        72O2py        72O2px        72O1d-2       72O1d-1       72O1d0     
  111   72O1d+1       72O1d+2       73O1s         73O2s         73O3s         73O1pz        73O1py        73O1px        73O2pz        73O2py     
  112   73O2px        73O1d-2       73O1d-1       73O1d0        73O1d+1       73O1d+2       74O1s         74O2s         74O3s         74O1pz     
  113   74O1py        74O1px        74O2pz        74O2py        74O2px        74O1d-2       74O1d-1       74O1d0        74O1d+1       74O1d+2    
  114   75O1s         75O2s         75O3s         75O1pz        75O1py        75O1px        75O2pz        75O2py        75O2px        75O1d-2    
  115   75O1d-1       75O1d0        75O1d+1       75O1d+2       76O1s         76O2s         76O3s         76O1pz        76O1py        76O1px     
  116   76O2pz        76O2py        76O2px        76O1d-2       76O1d-1       76O1d0        76O1d+1       76O1d+2       77O1s         77O2s      
  117   77O3s         77O1pz        77O1py        77O1px        77O2pz        77O2py        77O2px        77O1d-2       77O1d-1       77O1d0     
  118   77O1d+1       77O1d+2       78O1s         78O2s         78O3s         78O1pz        78O1py        78O1px        78O2pz        78O2py     
  119   78O2px        78O1d-2       78O1d-1       78O1d0        78O1d+1       78O1d+2       79O1s         79O2s         79O3s         79O1pz     
  120   79O1py        79O1px        79O2pz        79O2py        79O2px        79O1d-2       79O1d-1       79O1d0        79O1d+1       79O1d+2    
  121   80O1s         80O2s         80O3s         80O1pz        80O1py        80O1px        80O2pz        80O2py        80O2px        80O1d-2    
  122   80O1d-1       80O1d0        80O1d+1       80O1d+2       81O1s         81O2s         81O3s         81O1pz        81O1py        81O1px     
  123   81O2pz        81O2py        81O2px        81O1d-2       81O1d-1       81O1d0        81O1d+1       81O1d+2       82O1s         82O2s      
  124   82O3s         82O1pz        82O1py        82O1px        82O2pz        82O2py        82O2px        82O1d-2       82O1d-1       82O1d0     
  125   82O1d+1       82O1d+2       83O1s         83O2s         83O3s         83O1pz        83O1py        83O1px        83O2pz        83O2py     
  126   83O2px        83O1d-2       83O1d-1       83O1d0        83O1d+1       83O1d+2       84O1s         84O2s         84O3s         84O1pz     
  127   84O1py        84O1px        84O2pz        84O2py        84O2px        84O1d-2       84O1d-1       84O1d0        84O1d+1       84O1d+2    
  128   85O1s         85O2s         85O3s         85O1pz        85O1py        85O1px        85O2pz        85O2py        85O2px        85O1d-2    
  129   85O1d-1       85O1d0        85O1d+1       85O1d+2       86O1s         86O2s         86O3s         86O1pz        86O1py        86O1px     
  130   86O2pz        86O2py        86O2px        86O1d-2       86O1d-1       86O1d0        86O1d+1       86O1d+2    
 
 Maximum number of basis functions per shell:    9
 Total number of basis functions:   1308
 
 
 Fitting basis set for the SCF calculation:
 
   1  C  def2-qzvpp-ri-jk [ 14s 10p 6d 2f 1g | 10s 8p 5d 1f 1g ]
   2  O  def2-qzvpp-ri-jk [ 14s 10p 6d 2f 1g | 10s 8p 4d 2f 1g ]
   3  Mg def2-qzvpp-ri-jk [ 16s 12p 9d 4f 1g | 13s 9p 7d 4f 1g ]
   4  O  def2-qzvpp-ri-jk [ 14s 10p 6d 2f 1g | 10s 8p 4d 2f 1g ]
   5  O  def2-qzvpp-ri-jk [ 14s 10p 6d 2f 1g | 10s 8p 4d 2f 1g ]
   6  O  def2-qzvpp-ri-jk [ 14s 10p 6d 2f 1g | 10s 8p 4d 2f 1g ]
   7  O  def2-qzvpp-ri-jk [ 14s 10p 6d 2f 1g | 10s 8p 4d 2f 1g ]
   8  O  def2-qzvpp-ri-jk [ 14s 10p 6d 2f 1g | 10s 8p 4d 2f 1g ]
   9  Mg def2-qzvpp-ri-jk [ 16s 12p 9d 4f 1g | 13s 9p 7d 4f 1g ]
  10  Mg def2-qzvpp-ri-jk [ 16s 12p 9d 4f 1g | 13s 9p 7d 4f 1g ]
  11  Mg def2-qzvpp-ri-jk [ 16s 12p 9d 4f 1g | 13s 9p 7d 4f 1g ]
  12  Mg def2-qzvpp-ri-jk [ 16s 12p 9d 4f 1g | 13s 9p 7d 4f 1g ]
  13  Mg def2-qzvpp-ri-jk [ 16s 12p 9d 4f 1g | 13s 9p 7d 4f 1g ]
  14  Mg def2-qzvpp-ri-jk [ 16s 12p 9d 4f 1g | 13s 9p 7d 4f 1g ]
  15  Mg def2-qzvpp-ri-jk [ 16s 12p 9d 4f 1g | 13s 9p 7d 4f 1g ]
  16  Mg def2-qzvpp-ri-jk [ 16s 12p 9d 4f 1g | 13s 9p 7d 4f 1g ]
  17  O  def2-qzvpp-ri-jk [ 14s 10p 6d 2f 1g | 10s 8p 4d 2f 1g ]
  18  O  def2-qzvpp-ri-jk [ 14s 10p 6d 2f 1g | 10s 8p 4d 2f 1g ]
  19  O  def2-qzvpp-ri-jk [ 14s 10p 6d 2f 1g | 10s 8p 4d 2f 1g ]
  20  O  def2-qzvpp-ri-jk [ 14s 10p 6d 2f 1g | 10s 8p 4d 2f 1g ]
  21  Mg def2-qzvpp-ri-jk [ 16s 12p 9d 4f 1g | 13s 9p 7d 4f 1g ]
  22  Mg def2-qzvpp-ri-jk [ 16s 12p 9d 4f 1g | 13s 9p 7d 4f 1g ]
  23  Mg def2-qzvpp-ri-jk [ 16s 12p 9d 4f 1g | 13s 9p 7d 4f 1g ]
  24  Mg def2-qzvpp-ri-jk [ 16s 12p 9d 4f 1g | 13s 9p 7d 4f 1g ]
  25  Mg def2-qzvpp-ri-jk [ 16s 12p 9d 4f 1g | 13s 9p 7d 4f 1g ]
  26  O  def2-qzvpp-ri-jk [ 14s 10p 6d 2f 1g | 10s 8p 4d 2f 1g ]
  27  O  def2-qzvpp-ri-jk [ 14s 10p 6d 2f 1g | 10s 8p 4d 2f 1g ]
  28  O  def2-qzvpp-ri-jk [ 14s 10p 6d 2f 1g | 10s 8p 4d 2f 1g ]
  29  O  def2-qzvpp-ri-jk [ 14s 10p 6d 2f 1g | 10s 8p 4d 2f 1g ]
  30  O  def2-qzvpp-ri-jk [ 14s 10p 6d 2f 1g | 10s 8p 4d 2f 1g ]
  31  O  def2-qzvpp-ri-jk [ 14s 10p 6d 2f 1g | 10s 8p 4d 2f 1g ]
  32  O  def2-qzvpp-ri-jk [ 14s 10p 6d 2f 1g | 10s 8p 4d 2f 1g ]
  33  O  def2-qzvpp-ri-jk [ 14s 10p 6d 2f 1g | 10s 8p 4d 2f 1g ]
  34  O  def2-qzvpp-ri-jk [ 14s 10p 6d 2f 1g | 10s 8p 4d 2f 1g ]
  35  O  def2-qzvpp-ri-jk [ 14s 10p 6d 2f 1g | 10s 8p 4d 2f 1g ]
  36  O  def2-qzvpp-ri-jk [ 14s 10p 6d 2f 1g | 10s 8p 4d 2f 1g ]
  37  O  def2-qzvpp-ri-jk [ 14s 10p 6d 2f 1g | 10s 8p 4d 2f 1g ]
  38  O  def2-qzvpp-ri-jk [ 14s 10p 6d 2f 1g | 10s 8p 4d 2f 1g ]
  39  O  def2-qzvpp-ri-jk [ 14s 10p 6d 2f 1g | 10s 8p 4d 2f 1g ]
  40  O  def2-qzvpp-ri-jk [ 14s 10p 6d 2f 1g | 10s 8p 4d 2f 1g ]
  41  O  def2-qzvpp-ri-jk [ 14s 10p 6d 2f 1g | 10s 8p 4d 2f 1g ]
  42  Mg def2-qzvpp-ri-jk [ 16s 12p 9d 4f 1g | 13s 9p 7d 4f 1g ]
  43  Mg def2-qzvpp-ri-jk [ 16s 12p 9d 4f 1g | 13s 9p 7d 4f 1g ]
  44  Mg def2-qzvpp-ri-jk [ 16s 12p 9d 4f 1g | 13s 9p 7d 4f 1g ]
  45  Mg def2-qzvpp-ri-jk [ 16s 12p 9d 4f 1g | 13s 9p 7d 4f 1g ]
  46  Mg def2-qzvpp-ri-jk [ 16s 12p 9d 4f 1g | 13s 9p 7d 4f 1g ]
  47  Mg def2-qzvpp-ri-jk [ 16s 12p 9d 4f 1g | 13s 9p 7d 4f 1g ]
  48  Mg def2-qzvpp-ri-jk [ 16s 12p 9d 4f 1g | 13s 9p 7d 4f 1g ]
  49  Mg def2-qzvpp-ri-jk [ 16s 12p 9d 4f 1g | 13s 9p 7d 4f 1g ]
  50  Mg def2-qzvpp-ri-jk [ 16s 12p 9d 4f 1g | 13s 9p 7d 4f 1g ]
  51  Mg def2-qzvpp-ri-jk [ 16s 12p 9d 4f 1g | 13s 9p 7d 4f 1g ]
  52  Mg def2-qzvpp-ri-jk [ 16s 12p 9d 4f 1g | 13s 9p 7d 4f 1g ]
  53  Mg def2-qzvpp-ri-jk [ 16s 12p 9d 4f 1g | 13s 9p 7d 4f 1g ]
  54  O  def2-qzvpp-ri-jk [ 14s 10p 6d 2f 1g | 10s 8p 4d 2f 1g ]
  55  O  def2-qzvpp-ri-jk [ 14s 10p 6d 2f 1g | 10s 8p 4d 2f 1g ]
  56  O  def2-qzvpp-ri-jk [ 14s 10p 6d 2f 1g | 10s 8p 4d 2f 1g ]
  57  O  def2-qzvpp-ri-jk [ 14s 10p 6d 2f 1g | 10s 8p 4d 2f 1g ]
  58  O  def2-qzvpp-ri-jk [ 14s 10p 6d 2f 1g | 10s 8p 4d 2f 1g ]
  59  O  def2-qzvpp-ri-jk [ 14s 10p 6d 2f 1g | 10s 8p 4d 2f 1g ]
  60  O  def2-qzvpp-ri-jk [ 14s 10p 6d 2f 1g | 10s 8p 4d 2f 1g ]
  61  O  def2-qzvpp-ri-jk [ 14s 10p 6d 2f 1g | 10s 8p 4d 2f 1g ]
  62  O  def2-qzvpp-ri-jk [ 14s 10p 6d 2f 1g | 10s 8p 4d 2f 1g ]
  63  O  def2-qzvpp-ri-jk [ 14s 10p 6d 2f 1g | 10s 8p 4d 2f 1g ]
  64  O  def2-qzvpp-ri-jk [ 14s 10p 6d 2f 1g | 10s 8p 4d 2f 1g ]
  65  O  def2-qzvpp-ri-jk [ 14s 10p 6d 2f 1g | 10s 8p 4d 2f 1g ]
  66  O  def2-qzvpp-ri-jk [ 14s 10p 6d 2f 1g | 10s 8p 4d 2f 1g ]
  67  O  def2-qzvpp-ri-jk [ 14s 10p 6d 2f 1g | 10s 8p 4d 2f 1g ]
  68  O  def2-qzvpp-ri-jk [ 14s 10p 6d 2f 1g | 10s 8p 4d 2f 1g ]
  69  O  def2-qzvpp-ri-jk [ 14s 10p 6d 2f 1g | 10s 8p 4d 2f 1g ]
  70  O  def2-qzvpp-ri-jk [ 14s 10p 6d 2f 1g | 10s 8p 4d 2f 1g ]
  71  O  def2-qzvpp-ri-jk [ 14s 10p 6d 2f 1g | 10s 8p 4d 2f 1g ]
  72  O  def2-qzvpp-ri-jk [ 14s 10p 6d 2f 1g | 10s 8p 4d 2f 1g ]
  73  O  def2-qzvpp-ri-jk [ 14s 10p 6d 2f 1g | 10s 8p 4d 2f 1g ]
  74  O  def2-qzvpp-ri-jk [ 14s 10p 6d 2f 1g | 10s 8p 4d 2f 1g ]
  75  O  def2-qzvpp-ri-jk [ 14s 10p 6d 2f 1g | 10s 8p 4d 2f 1g ]
  76  O  def2-qzvpp-ri-jk [ 14s 10p 6d 2f 1g | 10s 8p 4d 2f 1g ]
  77  O  def2-qzvpp-ri-jk [ 14s 10p 6d 2f 1g | 10s 8p 4d 2f 1g ]
  78  O  def2-qzvpp-ri-jk [ 14s 10p 6d 2f 1g | 10s 8p 4d 2f 1g ]
  79  O  def2-qzvpp-ri-jk [ 14s 10p 6d 2f 1g | 10s 8p 4d 2f 1g ]
  80  O  def2-qzvpp-ri-jk [ 14s 10p 6d 2f 1g | 10s 8p 4d 2f 1g ]
  81  O  def2-qzvpp-ri-jk [ 14s 10p 6d 2f 1g | 10s 8p 4d 2f 1g ]
  82  O  def2-qzvpp-ri-jk [ 14s 10p 6d 2f 1g | 10s 8p 4d 2f 1g ]
  83  O  def2-qzvpp-ri-jk [ 14s 10p 6d 2f 1g | 10s 8p 4d 2f 1g ]
  84  O  def2-qzvpp-ri-jk [ 14s 10p 6d 2f 1g | 10s 8p 4d 2f 1g ]
  85  O  def2-qzvpp-ri-jk [ 14s 10p 6d 2f 1g | 10s 8p 4d 2f 1g ]
  86  O  def2-qzvpp-ri-jk [ 14s 10p 6d 2f 1g | 10s 8p 4d 2f 1g ]
 
 Basis functions:
            1             2             3             4             5             6             7             8             9            10
    0    1C1s          1C2s          1C3s          1C4s          1C5s          1C6s          1C7s          1C8s          1C9s          1C10s     
    1    1C1pz         1C1py         1C1px         1C2pz         1C2py         1C2px         1C3pz         1C3py         1C3px         1C4pz     
    2    1C4py         1C4px         1C5pz         1C5py         1C5px         1C6pz         1C6py         1C6px         1C7pz         1C7py     
    3    1C7px         1C8pz         1C8py         1C8px         1C1d-2        1C1d-1        1C1d0         1C1d+1        1C1d+2        1C2d-2    
    4    1C2d-1        1C2d0         1C2d+1        1C2d+2        1C3d-2        1C3d-1        1C3d0         1C3d+1        1C3d+2        1C4d-2    
    5    1C4d-1        1C4d0         1C4d+1        1C4d+2        1C5d-2        1C5d-1        1C5d0         1C5d+1        1C5d+2        1C1f-3    
    6    1C1f-2        1C1f-1        1C1f0         1C1f+1        1C1f+2        1C1f+3        1C1g-4        1C1g-3        1C1g-2        1C1g-1    
    7    1C1g0         1C1g+1        1C1g+2        1C1g+3        1C1g+4        2O1s          2O2s          2O3s          2O4s          2O5s      
    8    2O6s          2O7s          2O8s          2O9s          2O10s         2O1pz         2O1py         2O1px         2O2pz         2O2py     
    9    2O2px         2O3pz         2O3py         2O3px         2O4pz         2O4py         2O4px         2O5pz         2O5py         2O5px     
   10    2O6pz         2O6py         2O6px         2O7pz         2O7py         2O7px         2O8pz         2O8py         2O8px         2O1d-2    
   11    2O1d-1        2O1d0         2O1d+1        2O1d+2        2O2d-2        2O2d-1        2O2d0         2O2d+1        2O2d+2        2O3d-2    
   12    2O3d-1        2O3d0         2O3d+1        2O3d+2        2O4d-2        2O4d-1        2O4d0         2O4d+1        2O4d+2        2O1f-3    
   13    2O1f-2        2O1f-1        2O1f0         2O1f+1        2O1f+2        2O1f+3        2O2f-3        2O2f-2        2O2f-1        2O2f0     
   14    2O2f+1        2O2f+2        2O2f+3        2O1g-4        2O1g-3        2O1g-2        2O1g-1        2O1g0         2O1g+1        2O1g+2    
   15    2O1g+3        2O1g+4        3Mg1s         3Mg2s         3Mg3s         3Mg4s         3Mg5s         3Mg6s         3Mg7s         3Mg8s     
   16    3Mg9s         3Mg10s        3Mg11s        3Mg12s        3Mg13s        3Mg1pz        3Mg1py        3Mg1px        3Mg2pz        3Mg2py    
   17    3Mg2px        3Mg3pz        3Mg3py        3Mg3px        3Mg4pz        3Mg4py        3Mg4px        3Mg5pz        3Mg5py        3Mg5px    
   18    3Mg6pz        3Mg6py        3Mg6px        3Mg7pz        3Mg7py        3Mg7px        3Mg8pz        3Mg8py        3Mg8px        3Mg9pz    
   19    3Mg9py        3Mg9px        3Mg1d-2       3Mg1d-1       3Mg1d0        3Mg1d+1       3Mg1d+2       3Mg2d-2       3Mg2d-1       3Mg2d0    
   20    3Mg2d+1       3Mg2d+2       3Mg3d-2       3Mg3d-1       3Mg3d0        3Mg3d+1       3Mg3d+2       3Mg4d-2       3Mg4d-1       3Mg4d0    
   21    3Mg4d+1       3Mg4d+2       3Mg5d-2       3Mg5d-1       3Mg5d0        3Mg5d+1       3Mg5d+2       3Mg6d-2       3Mg6d-1       3Mg6d0    
   22    3Mg6d+1       3Mg6d+2       3Mg7d-2       3Mg7d-1       3Mg7d0        3Mg7d+1       3Mg7d+2       3Mg1f-3       3Mg1f-2       3Mg1f-1   
   23    3Mg1f0        3Mg1f+1       3Mg1f+2       3Mg1f+3       3Mg2f-3       3Mg2f-2       3Mg2f-1       3Mg2f0        3Mg2f+1       3Mg2f+2   
   24    3Mg2f+3       3Mg3f-3       3Mg3f-2       3Mg3f-1       3Mg3f0        3Mg3f+1       3Mg3f+2       3Mg3f+3       3Mg4f-3       3Mg4f-2   
   25    3Mg4f-1       3Mg4f0        3Mg4f+1       3Mg4f+2       3Mg4f+3       3Mg1g-4       3Mg1g-3       3Mg1g-2       3Mg1g-1       3Mg1g0    
   26    3Mg1g+1       3Mg1g+2       3Mg1g+3       3Mg1g+4       4O1s          4O2s          4O3s          4O4s          4O5s          4O6s      
   27    4O7s          4O8s          4O9s          4O10s         4O1pz         4O1py         4O1px         4O2pz         4O2py         4O2px     
   28    4O3pz         4O3py         4O3px         4O4pz         4O4py         4O4px         4O5pz         4O5py         4O5px         4O6pz     
   29    4O6py         4O6px         4O7pz         4O7py         4O7px         4O8pz         4O8py         4O8px         4O1d-2        4O1d-1    
   30    4O1d0         4O1d+1        4O1d+2        4O2d-2        4O2d-1        4O2d0         4O2d+1        4O2d+2        4O3d-2        4O3d-1    
   31    4O3d0         4O3d+1        4O3d+2        4O4d-2        4O4d-1        4O4d0         4O4d+1        4O4d+2        4O1f-3        4O1f-2    
   32    4O1f-1        4O1f0         4O1f+1        4O1f+2        4O1f+3        4O2f-3        4O2f-2        4O2f-1        4O2f0         4O2f+1    
   33    4O2f+2        4O2f+3        4O1g-4        4O1g-3        4O1g-2        4O1g-1        4O1g0         4O1g+1        4O1g+2        4O1g+3    
   34    4O1g+4        5O1s          5O2s          5O3s          5O4s          5O5s          5O6s          5O7s          5O8s          5O9s      
   35    5O10s         5O1pz         5O1py         5O1px         5O2pz         5O2py         5O2px         5O3pz         5O3py         5O3px     
   36    5O4pz         5O4py         5O4px         5O5pz         5O5py         5O5px         5O6pz         5O6py         5O6px         5O7pz     
   37    5O7py         5O7px         5O8pz         5O8py         5O8px         5O1d-2        5O1d-1        5O1d0         5O1d+1        5O1d+2    
   38    5O2d-2        5O2d-1        5O2d0         5O2d+1        5O2d+2        5O3d-2        5O3d-1        5O3d0         5O3d+1        5O3d+2    
   39    5O4d-2        5O4d-1        5O4d0         5O4d+1        5O4d+2        5O1f-3        5O1f-2        5O1f-1        5O1f0         5O1f+1    
   40    5O1f+2        5O1f+3        5O2f-3        5O2f-2        5O2f-1        5O2f0         5O2f+1        5O2f+2        5O2f+3        5O1g-4    
   41    5O1g-3        5O1g-2        5O1g-1        5O1g0         5O1g+1        5O1g+2        5O1g+3        5O1g+4        6O1s          6O2s      
   42    6O3s          6O4s          6O5s          6O6s          6O7s          6O8s          6O9s          6O10s         6O1pz         6O1py     
   43    6O1px         6O2pz         6O2py         6O2px         6O3pz         6O3py         6O3px         6O4pz         6O4py         6O4px     
   44    6O5pz         6O5py         6O5px         6O6pz         6O6py         6O6px         6O7pz         6O7py         6O7px         6O8pz     
   45    6O8py         6O8px         6O1d-2        6O1d-1        6O1d0         6O1d+1        6O1d+2        6O2d-2        6O2d-1        6O2d0     
   46    6O2d+1        6O2d+2        6O3d-2        6O3d-1        6O3d0         6O3d+1        6O3d+2        6O4d-2        6O4d-1        6O4d0     
   47    6O4d+1        6O4d+2        6O1f-3        6O1f-2        6O1f-1        6O1f0         6O1f+1        6O1f+2        6O1f+3        6O2f-3    
   48    6O2f-2        6O2f-1        6O2f0         6O2f+1        6O2f+2        6O2f+3        6O1g-4        6O1g-3        6O1g-2        6O1g-1    
   49    6O1g0         6O1g+1        6O1g+2        6O1g+3        6O1g+4        7O1s          7O2s          7O3s          7O4s          7O5s      
   50    7O6s          7O7s          7O8s          7O9s          7O10s         7O1pz         7O1py         7O1px         7O2pz         7O2py     
   51    7O2px         7O3pz         7O3py         7O3px         7O4pz         7O4py         7O4px         7O5pz         7O5py         7O5px     
   52    7O6pz         7O6py         7O6px         7O7pz         7O7py         7O7px         7O8pz         7O8py         7O8px         7O1d-2    
   53    7O1d-1        7O1d0         7O1d+1        7O1d+2        7O2d-2        7O2d-1        7O2d0         7O2d+1        7O2d+2        7O3d-2    
   54    7O3d-1        7O3d0         7O3d+1        7O3d+2        7O4d-2        7O4d-1        7O4d0         7O4d+1        7O4d+2        7O1f-3    
   55    7O1f-2        7O1f-1        7O1f0         7O1f+1        7O1f+2        7O1f+3        7O2f-3        7O2f-2        7O2f-1        7O2f0     
   56    7O2f+1        7O2f+2        7O2f+3        7O1g-4        7O1g-3        7O1g-2        7O1g-1        7O1g0         7O1g+1        7O1g+2    
   57    7O1g+3        7O1g+4        8O1s          8O2s          8O3s          8O4s          8O5s          8O6s          8O7s          8O8s      
   58    8O9s          8O10s         8O1pz         8O1py         8O1px         8O2pz         8O2py         8O2px         8O3pz         8O3py     
   59    8O3px         8O4pz         8O4py         8O4px         8O5pz         8O5py         8O5px         8O6pz         8O6py         8O6px     
   60    8O7pz         8O7py         8O7px         8O8pz         8O8py         8O8px         8O1d-2        8O1d-1        8O1d0         8O1d+1    
   61    8O1d+2        8O2d-2        8O2d-1        8O2d0         8O2d+1        8O2d+2        8O3d-2        8O3d-1        8O3d0         8O3d+1    
   62    8O3d+2        8O4d-2        8O4d-1        8O4d0         8O4d+1        8O4d+2        8O1f-3        8O1f-2        8O1f-1        8O1f0     
   63    8O1f+1        8O1f+2        8O1f+3        8O2f-3        8O2f-2        8O2f-1        8O2f0         8O2f+1        8O2f+2        8O2f+3    
   64    8O1g-4        8O1g-3        8O1g-2        8O1g-1        8O1g0         8O1g+1        8O1g+2        8O1g+3        8O1g+4        9Mg1s     
   65    9Mg2s         9Mg3s         9Mg4s         9Mg5s         9Mg6s         9Mg7s         9Mg8s         9Mg9s         9Mg10s        9Mg11s    
   66    9Mg12s        9Mg13s        9Mg1pz        9Mg1py        9Mg1px        9Mg2pz        9Mg2py        9Mg2px        9Mg3pz        9Mg3py    
   67    9Mg3px        9Mg4pz        9Mg4py        9Mg4px        9Mg5pz        9Mg5py        9Mg5px        9Mg6pz        9Mg6py        9Mg6px    
   68    9Mg7pz        9Mg7py        9Mg7px        9Mg8pz        9Mg8py        9Mg8px        9Mg9pz        9Mg9py        9Mg9px        9Mg1d-2   
   69    9Mg1d-1       9Mg1d0        9Mg1d+1       9Mg1d+2       9Mg2d-2       9Mg2d-1       9Mg2d0        9Mg2d+1       9Mg2d+2       9Mg3d-2   
   70    9Mg3d-1       9Mg3d0        9Mg3d+1       9Mg3d+2       9Mg4d-2       9Mg4d-1       9Mg4d0        9Mg4d+1       9Mg4d+2       9Mg5d-2   
   71    9Mg5d-1       9Mg5d0        9Mg5d+1       9Mg5d+2       9Mg6d-2       9Mg6d-1       9Mg6d0        9Mg6d+1       9Mg6d+2       9Mg7d-2   
   72    9Mg7d-1       9Mg7d0        9Mg7d+1       9Mg7d+2       9Mg1f-3       9Mg1f-2       9Mg1f-1       9Mg1f0        9Mg1f+1       9Mg1f+2   
   73    9Mg1f+3       9Mg2f-3       9Mg2f-2       9Mg2f-1       9Mg2f0        9Mg2f+1       9Mg2f+2       9Mg2f+3       9Mg3f-3       9Mg3f-2   
   74    9Mg3f-1       9Mg3f0        9Mg3f+1       9Mg3f+2       9Mg3f+3       9Mg4f-3       9Mg4f-2       9Mg4f-1       9Mg4f0        9Mg4f+1   
   75    9Mg4f+2       9Mg4f+3       9Mg1g-4       9Mg1g-3       9Mg1g-2       9Mg1g-1       9Mg1g0        9Mg1g+1       9Mg1g+2       9Mg1g+3   
   76    9Mg1g+4      10Mg1s        10Mg2s        10Mg3s        10Mg4s        10Mg5s        10Mg6s        10Mg7s        10Mg8s        10Mg9s     
   77   10Mg10s       10Mg11s       10Mg12s       10Mg13s       10Mg1pz       10Mg1py       10Mg1px       10Mg2pz       10Mg2py       10Mg2px    
   78   10Mg3pz       10Mg3py       10Mg3px       10Mg4pz       10Mg4py       10Mg4px       10Mg5pz       10Mg5py       10Mg5px       10Mg6pz    
   79   10Mg6py       10Mg6px       10Mg7pz       10Mg7py       10Mg7px       10Mg8pz       10Mg8py       10Mg8px       10Mg9pz       10Mg9py    
   80   10Mg9px       10Mg1d-2      10Mg1d-1      10Mg1d0       10Mg1d+1      10Mg1d+2      10Mg2d-2      10Mg2d-1      10Mg2d0       10Mg2d+1   
   81   10Mg2d+2      10Mg3d-2      10Mg3d-1      10Mg3d0       10Mg3d+1      10Mg3d+2      10Mg4d-2      10Mg4d-1      10Mg4d0       10Mg4d+1   
   82   10Mg4d+2      10Mg5d-2      10Mg5d-1      10Mg5d0       10Mg5d+1      10Mg5d+2      10Mg6d-2      10Mg6d-1      10Mg6d0       10Mg6d+1   
   83   10Mg6d+2      10Mg7d-2      10Mg7d-1      10Mg7d0       10Mg7d+1      10Mg7d+2      10Mg1f-3      10Mg1f-2      10Mg1f-1      10Mg1f0    
   84   10Mg1f+1      10Mg1f+2      10Mg1f+3      10Mg2f-3      10Mg2f-2      10Mg2f-1      10Mg2f0       10Mg2f+1      10Mg2f+2      10Mg2f+3   
   85   10Mg3f-3      10Mg3f-2      10Mg3f-1      10Mg3f0       10Mg3f+1      10Mg3f+2      10Mg3f+3      10Mg4f-3      10Mg4f-2      10Mg4f-1   
   86   10Mg4f0       10Mg4f+1      10Mg4f+2      10Mg4f+3      10Mg1g-4      10Mg1g-3      10Mg1g-2      10Mg1g-1      10Mg1g0       10Mg1g+1   
   87   10Mg1g+2      10Mg1g+3      10Mg1g+4      11Mg1s        11Mg2s        11Mg3s        11Mg4s        11Mg5s        11Mg6s        11Mg7s     
   88   11Mg8s        11Mg9s        11Mg10s       11Mg11s       11Mg12s       11Mg13s       11Mg1pz       11Mg1py       11Mg1px       11Mg2pz    
   89   11Mg2py       11Mg2px       11Mg3pz       11Mg3py       11Mg3px       11Mg4pz       11Mg4py       11Mg4px       11Mg5pz       11Mg5py    
   90   11Mg5px       11Mg6pz       11Mg6py       11Mg6px       11Mg7pz       11Mg7py       11Mg7px       11Mg8pz       11Mg8py       11Mg8px    
   91   11Mg9pz       11Mg9py       11Mg9px       11Mg1d-2      11Mg1d-1      11Mg1d0       11Mg1d+1      11Mg1d+2      11Mg2d-2      11Mg2d-1   
   92   11Mg2d0       11Mg2d+1      11Mg2d+2      11Mg3d-2      11Mg3d-1      11Mg3d0       11Mg3d+1      11Mg3d+2      11Mg4d-2      11Mg4d-1   
   93   11Mg4d0       11Mg4d+1      11Mg4d+2      11Mg5d-2      11Mg5d-1      11Mg5d0       11Mg5d+1      11Mg5d+2      11Mg6d-2      11Mg6d-1   
   94   11Mg6d0       11Mg6d+1      11Mg6d+2      11Mg7d-2      11Mg7d-1      11Mg7d0       11Mg7d+1      11Mg7d+2      11Mg1f-3      11Mg1f-2   
   95   11Mg1f-1      11Mg1f0       11Mg1f+1      11Mg1f+2      11Mg1f+3      11Mg2f-3      11Mg2f-2      11Mg2f-1      11Mg2f0       11Mg2f+1   
   96   11Mg2f+2      11Mg2f+3      11Mg3f-3      11Mg3f-2      11Mg3f-1      11Mg3f0       11Mg3f+1      11Mg3f+2      11Mg3f+3      11Mg4f-3   
   97   11Mg4f-2      11Mg4f-1      11Mg4f0       11Mg4f+1      11Mg4f+2      11Mg4f+3      11Mg1g-4      11Mg1g-3      11Mg1g-2      11Mg1g-1   
   98   11Mg1g0       11Mg1g+1      11Mg1g+2      11Mg1g+3      11Mg1g+4      12Mg1s        12Mg2s        12Mg3s        12Mg4s        12Mg5s     
   99   12Mg6s        12Mg7s        12Mg8s        12Mg9s        12Mg10s       12Mg11s       12Mg12s       12Mg13s       12Mg1pz       12Mg1py    
  100   12Mg1px       12Mg2pz       12Mg2py       12Mg2px       12Mg3pz       12Mg3py       12Mg3px       12Mg4pz       12Mg4py       12Mg4px    
  101   12Mg5pz       12Mg5py       12Mg5px       12Mg6pz       12Mg6py       12Mg6px       12Mg7pz       12Mg7py       12Mg7px       12Mg8pz    
  102   12Mg8py       12Mg8px       12Mg9pz       12Mg9py       12Mg9px       12Mg1d-2      12Mg1d-1      12Mg1d0       12Mg1d+1      12Mg1d+2   
  103   12Mg2d-2      12Mg2d-1      12Mg2d0       12Mg2d+1      12Mg2d+2      12Mg3d-2      12Mg3d-1      12Mg3d0       12Mg3d+1      12Mg3d+2   
  104   12Mg4d-2      12Mg4d-1      12Mg4d0       12Mg4d+1      12Mg4d+2      12Mg5d-2      12Mg5d-1      12Mg5d0       12Mg5d+1      12Mg5d+2   
  105   12Mg6d-2      12Mg6d-1      12Mg6d0       12Mg6d+1      12Mg6d+2      12Mg7d-2      12Mg7d-1      12Mg7d0       12Mg7d+1      12Mg7d+2   
  106   12Mg1f-3      12Mg1f-2      12Mg1f-1      12Mg1f0       12Mg1f+1      12Mg1f+2      12Mg1f+3      12Mg2f-3      12Mg2f-2      12Mg2f-1   
  107   12Mg2f0       12Mg2f+1      12Mg2f+2      12Mg2f+3      12Mg3f-3      12Mg3f-2      12Mg3f-1      12Mg3f0       12Mg3f+1      12Mg3f+2   
  108   12Mg3f+3      12Mg4f-3      12Mg4f-2      12Mg4f-1      12Mg4f0       12Mg4f+1      12Mg4f+2      12Mg4f+3      12Mg1g-4      12Mg1g-3   
  109   12Mg1g-2      12Mg1g-1      12Mg1g0       12Mg1g+1      12Mg1g+2      12Mg1g+3      12Mg1g+4      13Mg1s        13Mg2s        13Mg3s     
  110   13Mg4s        13Mg5s        13Mg6s        13Mg7s        13Mg8s        13Mg9s        13Mg10s       13Mg11s       13Mg12s       13Mg13s    
  111   13Mg1pz       13Mg1py       13Mg1px       13Mg2pz       13Mg2py       13Mg2px       13Mg3pz       13Mg3py       13Mg3px       13Mg4pz    
  112   13Mg4py       13Mg4px       13Mg5pz       13Mg5py       13Mg5px       13Mg6pz       13Mg6py       13Mg6px       13Mg7pz       13Mg7py    
  113   13Mg7px       13Mg8pz       13Mg8py       13Mg8px       13Mg9pz       13Mg9py       13Mg9px       13Mg1d-2      13Mg1d-1      13Mg1d0    
  114   13Mg1d+1      13Mg1d+2      13Mg2d-2      13Mg2d-1      13Mg2d0       13Mg2d+1      13Mg2d+2      13Mg3d-2      13Mg3d-1      13Mg3d0    
  115   13Mg3d+1      13Mg3d+2      13Mg4d-2      13Mg4d-1      13Mg4d0       13Mg4d+1      13Mg4d+2      13Mg5d-2      13Mg5d-1      13Mg5d0    
  116   13Mg5d+1      13Mg5d+2      13Mg6d-2      13Mg6d-1      13Mg6d0       13Mg6d+1      13Mg6d+2      13Mg7d-2      13Mg7d-1      13Mg7d0    
  117   13Mg7d+1      13Mg7d+2      13Mg1f-3      13Mg1f-2      13Mg1f-1      13Mg1f0       13Mg1f+1      13Mg1f+2      13Mg1f+3      13Mg2f-3   
  118   13Mg2f-2      13Mg2f-1      13Mg2f0       13Mg2f+1      13Mg2f+2      13Mg2f+3      13Mg3f-3      13Mg3f-2      13Mg3f-1      13Mg3f0    
  119   13Mg3f+1      13Mg3f+2      13Mg3f+3      13Mg4f-3      13Mg4f-2      13Mg4f-1      13Mg4f0       13Mg4f+1      13Mg4f+2      13Mg4f+3   
  120   13Mg1g-4      13Mg1g-3      13Mg1g-2      13Mg1g-1      13Mg1g0       13Mg1g+1      13Mg1g+2      13Mg1g+3      13Mg1g+4      14Mg1s     
  121   14Mg2s        14Mg3s        14Mg4s        14Mg5s        14Mg6s        14Mg7s        14Mg8s        14Mg9s        14Mg10s       14Mg11s    
  122   14Mg12s       14Mg13s       14Mg1pz       14Mg1py       14Mg1px       14Mg2pz       14Mg2py       14Mg2px       14Mg3pz       14Mg3py    
  123   14Mg3px       14Mg4pz       14Mg4py       14Mg4px       14Mg5pz       14Mg5py       14Mg5px       14Mg6pz       14Mg6py       14Mg6px    
  124   14Mg7pz       14Mg7py       14Mg7px       14Mg8pz       14Mg8py       14Mg8px       14Mg9pz       14Mg9py       14Mg9px       14Mg1d-2   
  125   14Mg1d-1      14Mg1d0       14Mg1d+1      14Mg1d+2      14Mg2d-2      14Mg2d-1      14Mg2d0       14Mg2d+1      14Mg2d+2      14Mg3d-2   
  126   14Mg3d-1      14Mg3d0       14Mg3d+1      14Mg3d+2      14Mg4d-2      14Mg4d-1      14Mg4d0       14Mg4d+1      14Mg4d+2      14Mg5d-2   
  127   14Mg5d-1      14Mg5d0       14Mg5d+1      14Mg5d+2      14Mg6d-2      14Mg6d-1      14Mg6d0       14Mg6d+1      14Mg6d+2      14Mg7d-2   
  128   14Mg7d-1      14Mg7d0       14Mg7d+1      14Mg7d+2      14Mg1f-3      14Mg1f-2      14Mg1f-1      14Mg1f0       14Mg1f+1      14Mg1f+2   
  129   14Mg1f+3      14Mg2f-3      14Mg2f-2      14Mg2f-1      14Mg2f0       14Mg2f+1      14Mg2f+2      14Mg2f+3      14Mg3f-3      14Mg3f-2   
  130   14Mg3f-1      14Mg3f0       14Mg3f+1      14Mg3f+2      14Mg3f+3      14Mg4f-3      14Mg4f-2      14Mg4f-1      14Mg4f0       14Mg4f+1   
  131   14Mg4f+2      14Mg4f+3      14Mg1g-4      14Mg1g-3      14Mg1g-2      14Mg1g-1      14Mg1g0       14Mg1g+1      14Mg1g+2      14Mg1g+3   
  132   14Mg1g+4      15Mg1s        15Mg2s        15Mg3s        15Mg4s        15Mg5s        15Mg6s        15Mg7s        15Mg8s        15Mg9s     
  133   15Mg10s       15Mg11s       15Mg12s       15Mg13s       15Mg1pz       15Mg1py       15Mg1px       15Mg2pz       15Mg2py       15Mg2px    
  134   15Mg3pz       15Mg3py       15Mg3px       15Mg4pz       15Mg4py       15Mg4px       15Mg5pz       15Mg5py       15Mg5px       15Mg6pz    
  135   15Mg6py       15Mg6px       15Mg7pz       15Mg7py       15Mg7px       15Mg8pz       15Mg8py       15Mg8px       15Mg9pz       15Mg9py    
  136   15Mg9px       15Mg1d-2      15Mg1d-1      15Mg1d0       15Mg1d+1      15Mg1d+2      15Mg2d-2      15Mg2d-1      15Mg2d0       15Mg2d+1   
  137   15Mg2d+2      15Mg3d-2      15Mg3d-1      15Mg3d0       15Mg3d+1      15Mg3d+2      15Mg4d-2      15Mg4d-1      15Mg4d0       15Mg4d+1   
  138   15Mg4d+2      15Mg5d-2      15Mg5d-1      15Mg5d0       15Mg5d+1      15Mg5d+2      15Mg6d-2      15Mg6d-1      15Mg6d0       15Mg6d+1   
  139   15Mg6d+2      15Mg7d-2      15Mg7d-1      15Mg7d0       15Mg7d+1      15Mg7d+2      15Mg1f-3      15Mg1f-2      15Mg1f-1      15Mg1f0    
  140   15Mg1f+1      15Mg1f+2      15Mg1f+3      15Mg2f-3      15Mg2f-2      15Mg2f-1      15Mg2f0       15Mg2f+1      15Mg2f+2      15Mg2f+3   
  141   15Mg3f-3      15Mg3f-2      15Mg3f-1      15Mg3f0       15Mg3f+1      15Mg3f+2      15Mg3f+3      15Mg4f-3      15Mg4f-2      15Mg4f-1   
  142   15Mg4f0       15Mg4f+1      15Mg4f+2      15Mg4f+3      15Mg1g-4      15Mg1g-3      15Mg1g-2      15Mg1g-1      15Mg1g0       15Mg1g+1   
  143   15Mg1g+2      15Mg1g+3      15Mg1g+4      16Mg1s        16Mg2s        16Mg3s        16Mg4s        16Mg5s        16Mg6s        16Mg7s     
  144   16Mg8s        16Mg9s        16Mg10s       16Mg11s       16Mg12s       16Mg13s       16Mg1pz       16Mg1py       16Mg1px       16Mg2pz    
  145   16Mg2py       16Mg2px       16Mg3pz       16Mg3py       16Mg3px       16Mg4pz       16Mg4py       16Mg4px       16Mg5pz       16Mg5py    
  146   16Mg5px       16Mg6pz       16Mg6py       16Mg6px       16Mg7pz       16Mg7py       16Mg7px       16Mg8pz       16Mg8py       16Mg8px    
  147   16Mg9pz       16Mg9py       16Mg9px       16Mg1d-2      16Mg1d-1      16Mg1d0       16Mg1d+1      16Mg1d+2      16Mg2d-2      16Mg2d-1   
  148   16Mg2d0       16Mg2d+1      16Mg2d+2      16Mg3d-2      16Mg3d-1      16Mg3d0       16Mg3d+1      16Mg3d+2      16Mg4d-2      16Mg4d-1   
  149   16Mg4d0       16Mg4d+1      16Mg4d+2      16Mg5d-2      16Mg5d-1      16Mg5d0       16Mg5d+1      16Mg5d+2      16Mg6d-2      16Mg6d-1   
  150   16Mg6d0       16Mg6d+1      16Mg6d+2      16Mg7d-2      16Mg7d-1      16Mg7d0       16Mg7d+1      16Mg7d+2      16Mg1f-3      16Mg1f-2   
  151   16Mg1f-1      16Mg1f0       16Mg1f+1      16Mg1f+2      16Mg1f+3      16Mg2f-3      16Mg2f-2      16Mg2f-1      16Mg2f0       16Mg2f+1   
  152   16Mg2f+2      16Mg2f+3      16Mg3f-3      16Mg3f-2      16Mg3f-1      16Mg3f0       16Mg3f+1      16Mg3f+2      16Mg3f+3      16Mg4f-3   
  153   16Mg4f-2      16Mg4f-1      16Mg4f0       16Mg4f+1      16Mg4f+2      16Mg4f+3      16Mg1g-4      16Mg1g-3      16Mg1g-2      16Mg1g-1   
  154   16Mg1g0       16Mg1g+1      16Mg1g+2      16Mg1g+3      16Mg1g+4      17O1s         17O2s         17O3s         17O4s         17O5s      
  155   17O6s         17O7s         17O8s         17O9s         17O10s        17O1pz        17O1py        17O1px        17O2pz        17O2py     
  156   17O2px        17O3pz        17O3py        17O3px        17O4pz        17O4py        17O4px        17O5pz        17O5py        17O5px     
  157   17O6pz        17O6py        17O6px        17O7pz        17O7py        17O7px        17O8pz        17O8py        17O8px        17O1d-2    
  158   17O1d-1       17O1d0        17O1d+1       17O1d+2       17O2d-2       17O2d-1       17O2d0        17O2d+1       17O2d+2       17O3d-2    
  159   17O3d-1       17O3d0        17O3d+1       17O3d+2       17O4d-2       17O4d-1       17O4d0        17O4d+1       17O4d+2       17O1f-3    
  160   17O1f-2       17O1f-1       17O1f0        17O1f+1       17O1f+2       17O1f+3       17O2f-3       17O2f-2       17O2f-1       17O2f0     
  161   17O2f+1       17O2f+2       17O2f+3       17O1g-4       17O1g-3       17O1g-2       17O1g-1       17O1g0        17O1g+1       17O1g+2    
  162   17O1g+3       17O1g+4       18O1s         18O2s         18O3s         18O4s         18O5s         18O6s         18O7s         18O8s      
  163   18O9s         18O10s        18O1pz        18O1py        18O1px        18O2pz        18O2py        18O2px        18O3pz        18O3py     
  164   18O3px        18O4pz        18O4py        18O4px        18O5pz        18O5py        18O5px        18O6pz        18O6py        18O6px     
  165   18O7pz        18O7py        18O7px        18O8pz        18O8py        18O8px        18O1d-2       18O1d-1       18O1d0        18O1d+1    
  166   18O1d+2       18O2d-2       18O2d-1       18O2d0        18O2d+1       18O2d+2       18O3d-2       18O3d-1       18O3d0        18O3d+1    
  167   18O3d+2       18O4d-2       18O4d-1       18O4d0        18O4d+1       18O4d+2       18O1f-3       18O1f-2       18O1f-1       18O1f0     
  168   18O1f+1       18O1f+2       18O1f+3       18O2f-3       18O2f-2       18O2f-1       18O2f0        18O2f+1       18O2f+2       18O2f+3    
  169   18O1g-4       18O1g-3       18O1g-2       18O1g-1       18O1g0        18O1g+1       18O1g+2       18O1g+3       18O1g+4       19O1s      
  170   19O2s         19O3s         19O4s         19O5s         19O6s         19O7s         19O8s         19O9s         19O10s        19O1pz     
  171   19O1py        19O1px        19O2pz        19O2py        19O2px        19O3pz        19O3py        19O3px        19O4pz        19O4py     
  172   19O4px        19O5pz        19O5py        19O5px        19O6pz        19O6py        19O6px        19O7pz        19O7py        19O7px     
  173   19O8pz        19O8py        19O8px        19O1d-2       19O1d-1       19O1d0        19O1d+1       19O1d+2       19O2d-2       19O2d-1    
  174   19O2d0        19O2d+1       19O2d+2       19O3d-2       19O3d-1       19O3d0        19O3d+1       19O3d+2       19O4d-2       19O4d-1    
  175   19O4d0        19O4d+1       19O4d+2       19O1f-3       19O1f-2       19O1f-1       19O1f0        19O1f+1       19O1f+2       19O1f+3    
  176   19O2f-3       19O2f-2       19O2f-1       19O2f0        19O2f+1       19O2f+2       19O2f+3       19O1g-4       19O1g-3       19O1g-2    
  177   19O1g-1       19O1g0        19O1g+1       19O1g+2       19O1g+3       19O1g+4       20O1s         20O2s         20O3s         20O4s      
[...]
    9    7O3s          7O1pz         7O1py         7O1px         7O2pz         7O2py         7O2px         7O1d-2        7O1d-1        7O1d0     
   10    7O1d+1        7O1d+2        8O1s          8O2s          8O3s          8O1pz         8O1py         8O1px         8O2pz         8O2py     
   11    8O2px         8O1d-2        8O1d-1        8O1d0         8O1d+1        8O1d+2        9Mg1s         9Mg2s         9Mg3s         9Mg4s     
   12    9Mg1pz        9Mg1py        9Mg1px        9Mg2pz        9Mg2py        9Mg2px        9Mg3pz        9Mg3py        9Mg3px        9Mg1d-2   
   13    9Mg1d-1       9Mg1d0        9Mg1d+1       9Mg1d+2      10Mg1s        10Mg2s        10Mg3s        10Mg4s        10Mg1pz       10Mg1py    
   14   10Mg1px       10Mg2pz       10Mg2py       10Mg2px       10Mg3pz       10Mg3py       10Mg3px       10Mg1d-2      10Mg1d-1      10Mg1d0    
   15   10Mg1d+1      10Mg1d+2      11Mg1s        11Mg2s        11Mg3s        11Mg4s        11Mg1pz       11Mg1py       11Mg1px       11Mg2pz    
   16   11Mg2py       11Mg2px       11Mg3pz       11Mg3py       11Mg3px       11Mg1d-2      11Mg1d-1      11Mg1d0       11Mg1d+1      11Mg1d+2   
   17   12Mg1s        12Mg2s        12Mg3s        12Mg4s        12Mg1pz       12Mg1py       12Mg1px       12Mg2pz       12Mg2py       12Mg2px    
   18   12Mg3pz       12Mg3py       12Mg3px       12Mg1d-2      12Mg1d-1      12Mg1d0       12Mg1d+1      12Mg1d+2      13Mg1s        13Mg2s     
   19   13Mg3s        13Mg4s        13Mg1pz       13Mg1py       13Mg1px       13Mg2pz       13Mg2py       13Mg2px       13Mg3pz       13Mg3py    
   20   13Mg3px       13Mg1d-2      13Mg1d-1      13Mg1d0       13Mg1d+1      13Mg1d+2      14Mg1s        14Mg2s        14Mg3s        14Mg4s     
   21   14Mg1pz       14Mg1py       14Mg1px       14Mg2pz       14Mg2py       14Mg2px       14Mg3pz       14Mg3py       14Mg3px       14Mg1d-2   
   22   14Mg1d-1      14Mg1d0       14Mg1d+1      14Mg1d+2      15Mg1s        15Mg2s        15Mg3s        15Mg4s        15Mg1pz       15Mg1py    
   23   15Mg1px       15Mg2pz       15Mg2py       15Mg2px       15Mg3pz       15Mg3py       15Mg3px       15Mg1d-2      15Mg1d-1      15Mg1d0    
   24   15Mg1d+1      15Mg1d+2      16Mg1s        16Mg2s        16Mg3s        16Mg4s        16Mg1pz       16Mg1py       16Mg1px       16Mg2pz    
   25   16Mg2py       16Mg2px       16Mg3pz       16Mg3py       16Mg3px       16Mg1d-2      16Mg1d-1      16Mg1d0       16Mg1d+1      16Mg1d+2   
   26   17O1s         17O2s         17O3s         17O1pz        17O1py        17O1px        17O2pz        17O2py        17O2px        17O1d-2    
   27   17O1d-1       17O1d0        17O1d+1       17O1d+2       18O1s         18O2s         18O3s         18O1pz        18O1py        18O1px     
   28   18O2pz        18O2py        18O2px        18O1d-2       18O1d-1       18O1d0        18O1d+1       18O1d+2       19O1s         19O2s      
   29   19O3s         19O1pz        19O1py        19O1px        19O2pz        19O2py        19O2px        19O1d-2       19O1d-1       19O1d0     
   30   19O1d+1       19O1d+2       20O1s         20O2s         20O3s         20O1pz        20O1py        20O1px        20O2pz        20O2py     
   31   20O2px        20O1d-2       20O1d-1       20O1d0        20O1d+1       20O1d+2       21Mg1s        21Mg2s        21Mg3s        21Mg4s     
   32   21Mg1pz       21Mg1py       21Mg1px       21Mg2pz       21Mg2py       21Mg2px       21Mg3pz       21Mg3py       21Mg3px       21Mg1d-2   
   33   21Mg1d-1      21Mg1d0       21Mg1d+1      21Mg1d+2      22Mg1s        22Mg2s        22Mg3s        22Mg4s        22Mg1pz       22Mg1py    
   34   22Mg1px       22Mg2pz       22Mg2py       22Mg2px       22Mg3pz       22Mg3py       22Mg3px       22Mg1d-2      22Mg1d-1      22Mg1d0    
   35   22Mg1d+1      22Mg1d+2      23Mg1s        23Mg2s        23Mg3s        23Mg4s        23Mg1pz       23Mg1py       23Mg1px       23Mg2pz    
   36   23Mg2py       23Mg2px       23Mg3pz       23Mg3py       23Mg3px       23Mg1d-2      23Mg1d-1      23Mg1d0       23Mg1d+1      23Mg1d+2   
   37   24Mg1s        24Mg2s        24Mg3s        24Mg4s        24Mg1pz       24Mg1py       24Mg1px       24Mg2pz       24Mg2py       24Mg2px    
   38   24Mg3pz       24Mg3py       24Mg3px       24Mg1d-2      24Mg1d-1      24Mg1d0       24Mg1d+1      24Mg1d+2      25Mg1s        25Mg2s     
   39   25Mg3s        25Mg4s        25Mg1pz       25Mg1py       25Mg1px       25Mg2pz       25Mg2py       25Mg2px       25Mg3pz       25Mg3py    
   40   25Mg3px       25Mg1d-2      25Mg1d-1      25Mg1d0       25Mg1d+1      25Mg1d+2      26O1s         26O2s         26O3s         26O1pz     
   41   26O1py        26O1px        26O2pz        26O2py        26O2px        26O1d-2       26O1d-1       26O1d0        26O1d+1       26O1d+2    
   42   27O1s         27O2s         27O3s         27O1pz        27O1py        27O1px        27O2pz        27O2py        27O2px        27O1d-2    
   43   27O1d-1       27O1d0        27O1d+1       27O1d+2       28O1s         28O2s         28O3s         28O1pz        28O1py        28O1px     
   44   28O2pz        28O2py        28O2px        28O1d-2       28O1d-1       28O1d0        28O1d+1       28O1d+2       29O1s         29O2s      
   45   29O3s         29O1pz        29O1py        29O1px        29O2pz        29O2py        29O2px        29O1d-2       29O1d-1       29O1d0     
   46   29O1d+1       29O1d+2       30O1s         30O2s         30O3s         30O1pz        30O1py        30O1px        30O2pz        30O2py     
   47   30O2px        30O1d-2       30O1d-1       30O1d0        30O1d+1       30O1d+2       31O1s         31O2s         31O3s         31O1pz     
   48   31O1py        31O1px        31O2pz        31O2py        31O2px        31O1d-2       31O1d-1       31O1d0        31O1d+1       31O1d+2    
   49   32O1s         32O2s         32O3s         32O1pz        32O1py        32O1px        32O2pz        32O2py        32O2px        32O1d-2    
   50   32O1d-1       32O1d0        32O1d+1       32O1d+2       33O1s         33O2s         33O3s         33O1pz        33O1py        33O1px     
   51   33O2pz        33O2py        33O2px        33O1d-2       33O1d-1       33O1d0        33O1d+1       33O1d+2       34O1s         34O2s      
   52   34O3s         34O1pz        34O1py        34O1px        34O2pz        34O2py        34O2px        34O1d-2       34O1d-1       34O1d0     
   53   34O1d+1       34O1d+2       35O1s         35O2s         35O3s         35O1pz        35O1py        35O1px        35O2pz        35O2py     
   54   35O2px        35O1d-2       35O1d-1       35O1d0        35O1d+1       35O1d+2       36O1s         36O2s         36O3s         36O1pz     
   55   36O1py        36O1px        36O2pz        36O2py        36O2px        36O1d-2       36O1d-1       36O1d0        36O1d+1       36O1d+2    
   56   37O1s         37O2s         37O3s         37O1pz        37O1py        37O1px        37O2pz        37O2py        37O2px        37O1d-2    
   57   37O1d-1       37O1d0        37O1d+1       37O1d+2       38O1s         38O2s         38O3s         38O1pz        38O1py        38O1px     
   58   38O2pz        38O2py        38O2px        38O1d-2       38O1d-1       38O1d0        38O1d+1       38O1d+2       39O1s         39O2s      
   59   39O3s         39O1pz        39O1py        39O1px        39O2pz        39O2py        39O2px        39O1d-2       39O1d-1       39O1d0     
   60   39O1d+1       39O1d+2       40O1s         40O2s         40O3s         40O1pz        40O1py        40O1px        40O2pz        40O2py     
   61   40O2px        40O1d-2       40O1d-1       40O1d0        40O1d+1       40O1d+2       41O1s         41O2s         41O3s         41O1pz     
   62   41O1py        41O1px        41O2pz        41O2py        41O2px        41O1d-2       41O1d-1       41O1d0        41O1d+1       41O1d+2    
   63   42Mg1s        42Mg2s        42Mg3s        42Mg4s        42Mg1pz       42Mg1py       42Mg1px       42Mg2pz       42Mg2py       42Mg2px    
   64   42Mg3pz       42Mg3py       42Mg3px       42Mg1d-2      42Mg1d-1      42Mg1d0       42Mg1d+1      42Mg1d+2      43Mg1s        43Mg2s     
   65   43Mg3s        43Mg4s        43Mg1pz       43Mg1py       43Mg1px       43Mg2pz       43Mg2py       43Mg2px       43Mg3pz       43Mg3py    
   66   43Mg3px       43Mg1d-2      43Mg1d-1      43Mg1d0       43Mg1d+1      43Mg1d+2      44Mg1s        44Mg2s        44Mg3s        44Mg4s     
   67   44Mg1pz       44Mg1py       44Mg1px       44Mg2pz       44Mg2py       44Mg2px       44Mg3pz       44Mg3py       44Mg3px       44Mg1d-2   
   68   44Mg1d-1      44Mg1d0       44Mg1d+1      44Mg1d+2      45Mg1s        45Mg2s        45Mg3s        45Mg4s        45Mg1pz       45Mg1py    
   69   45Mg1px       45Mg2pz       45Mg2py       45Mg2px       45Mg3pz       45Mg3py       45Mg3px       45Mg1d-2      45Mg1d-1      45Mg1d0    
   70   45Mg1d+1      45Mg1d+2      46Mg1s        46Mg2s        46Mg3s        46Mg4s        46Mg1pz       46Mg1py       46Mg1px       46Mg2pz    
   71   46Mg2py       46Mg2px       46Mg3pz       46Mg3py       46Mg3px       46Mg1d-2      46Mg1d-1      46Mg1d0       46Mg1d+1      46Mg1d+2   
   72   47Mg1s        47Mg2s        47Mg3s        47Mg4s        47Mg1pz       47Mg1py       47Mg1px       47Mg2pz       47Mg2py       47Mg2px    
   73   47Mg3pz       47Mg3py       47Mg3px       47Mg1d-2      47Mg1d-1      47Mg1d0       47Mg1d+1      47Mg1d+2      48Mg1s        48Mg2s     
   74   48Mg3s        48Mg4s        48Mg1pz       48Mg1py       48Mg1px       48Mg2pz       48Mg2py       48Mg2px       48Mg3pz       48Mg3py    
   75   48Mg3px       48Mg1d-2      48Mg1d-1      48Mg1d0       48Mg1d+1      48Mg1d+2      49Mg1s        49Mg2s        49Mg3s        49Mg4s     
   76   49Mg1pz       49Mg1py       49Mg1px       49Mg2pz       49Mg2py       49Mg2px       49Mg3pz       49Mg3py       49Mg3px       49Mg1d-2   
   77   49Mg1d-1      49Mg1d0       49Mg1d+1      49Mg1d+2      50Mg1s        50Mg2s        50Mg3s        50Mg4s        50Mg1pz       50Mg1py    
   78   50Mg1px       50Mg2pz       50Mg2py       50Mg2px       50Mg3pz       50Mg3py       50Mg3px       50Mg1d-2      50Mg1d-1      50Mg1d0    
   79   50Mg1d+1      50Mg1d+2      51Mg1s        51Mg2s        51Mg3s        51Mg4s        51Mg1pz       51Mg1py       51Mg1px       51Mg2pz    
   80   51Mg2py       51Mg2px       51Mg3pz       51Mg3py       51Mg3px       51Mg1d-2      51Mg1d-1      51Mg1d0       51Mg1d+1      51Mg1d+2   
   81   52Mg1s        52Mg2s        52Mg3s        52Mg4s        52Mg1pz       52Mg1py       52Mg1px       52Mg2pz       52Mg2py       52Mg2px    
   82   52Mg3pz       52Mg3py       52Mg3px       52Mg1d-2      52Mg1d-1      52Mg1d0       52Mg1d+1      52Mg1d+2      53Mg1s        53Mg2s     
   83   53Mg3s        53Mg4s        53Mg1pz       53Mg1py       53Mg1px       53Mg2pz       53Mg2py       53Mg2px       53Mg3pz       53Mg3py    
   84   53Mg3px       53Mg1d-2      53Mg1d-1      53Mg1d0       53Mg1d+1      53Mg1d+2      54O1s         54O2s         54O3s         54O1pz     
   85   54O1py        54O1px        54O2pz        54O2py        54O2px        54O1d-2       54O1d-1       54O1d0        54O1d+1       54O1d+2    
   86   55O1s         55O2s         55O3s         55O1pz        55O1py        55O1px        55O2pz        55O2py        55O2px        55O1d-2    
   87   55O1d-1       55O1d0        55O1d+1       55O1d+2       56O1s         56O2s         56O3s         56O1pz        56O1py        56O1px     
   88   56O2pz        56O2py        56O2px        56O1d-2       56O1d-1       56O1d0        56O1d+1       56O1d+2       57O1s         57O2s      
   89   57O3s         57O1pz        57O1py        57O1px        57O2pz        57O2py        57O2px        57O1d-2       57O1d-1       57O1d0     
   90   57O1d+1       57O1d+2       58O1s         58O2s         58O3s         58O1pz        58O1py        58O1px        58O2pz        58O2py     
   91   58O2px        58O1d-2       58O1d-1       58O1d0        58O1d+1       58O1d+2       59O1s         59O2s         59O3s         59O1pz     
   92   59O1py        59O1px        59O2pz        59O2py        59O2px        59O1d-2       59O1d-1       59O1d0        59O1d+1       59O1d+2    
   93   60O1s         60O2s         60O3s         60O1pz        60O1py        60O1px        60O2pz        60O2py        60O2px        60O1d-2    
   94   60O1d-1       60O1d0        60O1d+1       60O1d+2       61O1s         61O2s         61O3s         61O1pz        61O1py        61O1px     
   95   61O2pz        61O2py        61O2px        61O1d-2       61O1d-1       61O1d0        61O1d+1       61O1d+2       62O1s         62O2s      
   96   62O3s         62O1pz        62O1py        62O1px        62O2pz        62O2py        62O2px        62O1d-2       62O1d-1       62O1d0     
   97   62O1d+1       62O1d+2       63O1s         63O2s         63O3s         63O1pz        63O1py        63O1px        63O2pz        63O2py     
   98   63O2px        63O1d-2       63O1d-1       63O1d0        63O1d+1       63O1d+2       64O1s         64O2s         64O3s         64O1pz     
   99   64O1py        64O1px        64O2pz        64O2py        64O2px        64O1d-2       64O1d-1       64O1d0        64O1d+1       64O1d+2    
  100   65O1s         65O2s         65O3s         65O1pz        65O1py        65O1px        65O2pz        65O2py        65O2px        65O1d-2    
  101   65O1d-1       65O1d0        65O1d+1       65O1d+2       66O1s         66O2s         66O3s         66O1pz        66O1py        66O1px     
  102   66O2pz        66O2py        66O2px        66O1d-2       66O1d-1       66O1d0        66O1d+1       66O1d+2       67O1s         67O2s      
  103   67O3s         67O1pz        67O1py        67O1px        67O2pz        67O2py        67O2px        67O1d-2       67O1d-1       67O1d0     
  104   67O1d+1       67O1d+2       68O1s         68O2s         68O3s         68O1pz        68O1py        68O1px        68O2pz        68O2py     
  105   68O2px        68O1d-2       68O1d-1       68O1d0        68O1d+1       68O1d+2       69O1s         69O2s         69O3s         69O1pz     
  106   69O1py        69O1px        69O2pz        69O2py        69O2px        69O1d-2       69O1d-1       69O1d0        69O1d+1       69O1d+2    
  107   70O1s         70O2s         70O3s         70O1pz        70O1py        70O1px        70O2pz        70O2py        70O2px        70O1d-2    
  108   70O1d-1       70O1d0        70O1d+1       70O1d+2       71O1s         71O2s         71O3s         71O1pz        71O1py        71O1px     
  109   71O2pz        71O2py        71O2px        71O1d-2       71O1d-1       71O1d0        71O1d+1       71O1d+2       72O1s         72O2s      
  110   72O3s         72O1pz        72O1py        72O1px        72O2pz        72O2py        72O2px        72O1d-2       72O1d-1       72O1d0     
  111   72O1d+1       72O1d+2       73O1s         73O2s         73O3s         73O1pz        73O1py        73O1px        73O2pz        73O2py     
  112   73O2px        73O1d-2       73O1d-1       73O1d0        73O1d+1       73O1d+2       74O1s         74O2s         74O3s         74O1pz     
  113   74O1py        74O1px        74O2pz        74O2py        74O2px        74O1d-2       74O1d-1       74O1d0        74O1d+1       74O1d+2    
  114   75O1s         75O2s         75O3s         75O1pz        75O1py        75O1px        75O2pz        75O2py        75O2px        75O1d-2    
  115   75O1d-1       75O1d0        75O1d+1       75O1d+2       76O1s         76O2s         76O3s         76O1pz        76O1py        76O1px     
  116   76O2pz        76O2py        76O2px        76O1d-2       76O1d-1       76O1d0        76O1d+1       76O1d+2       77O1s         77O2s      
  117   77O3s         77O1pz        77O1py        77O1px        77O2pz        77O2py        77O2px        77O1d-2       77O1d-1       77O1d0     
  118   77O1d+1       77O1d+2       78O1s         78O2s         78O3s         78O1pz        78O1py        78O1px        78O2pz        78O2py     
  119   78O2px        78O1d-2       78O1d-1       78O1d0        78O1d+1       78O1d+2       79O1s         79O2s         79O3s         79O1pz     
  120   79O1py        79O1px        79O2pz        79O2py        79O2px        79O1d-2       79O1d-1       79O1d0        79O1d+1       79O1d+2    
  121   80O1s         80O2s         80O3s         80O1pz        80O1py        80O1px        80O2pz        80O2py        80O2px        80O1d-2    
  122   80O1d-1       80O1d0        80O1d+1       80O1d+2       81O1s         81O2s         81O3s         81O1pz        81O1py        81O1px     
  123   81O2pz        81O2py        81O2px        81O1d-2       81O1d-1       81O1d0        81O1d+1       81O1d+2       82O1s         82O2s      
  124   82O3s         82O1pz        82O1py        82O1px        82O2pz        82O2py        82O2px        82O1d-2       82O1d-1       82O1d0     
  125   82O1d+1       82O1d+2       83O1s         83O2s         83O3s         83O1pz        83O1py        83O1px        83O2pz        83O2py     
  126   83O2px        83O1d-2       83O1d-1       83O1d0        83O1d+1       83O1d+2       84O1s         84O2s         84O3s         84O1pz     
  127   84O1py        84O1px        84O2pz        84O2py        84O2px        84O1d-2       84O1d-1       84O1d0        84O1d+1       84O1d+2    
  128   85O1s         85O2s         85O3s         85O1pz        85O1py        85O1px        85O2pz        85O2py        85O2px        85O1d-2    
  129   85O1d-1       85O1d0        85O1d+1       85O1d+2       86O1s         86O2s         86O3s         86O1pz        86O1py        86O1px     
  130   86O2pz        86O2py        86O2px        86O1d-2       86O1d-1       86O1d0        86O1d+1       86O1d+2    
 
 Maximum number of basis functions per shell:   40
 Total number of basis functions:   1308
 
 
 Calculation of prescreening integrals...
 CPU time [min]:    23.360                   Wall time [min]:     0.715
 
 Calculation of two-center Coulomb integrals...
   1% done.
  12% done.
  23% done.
  34% done.
  45% done.
  56% done.
  67% done.
  78% done.
  89% done.
 100% done.
 CPU time [min]:    23.559                   Wall time [min]:     0.721
 
 Cholesky decomposition of the inverse of the two-center matrix...
 CPU time [min]:    24.178                   Wall time [min]:     0.761
 
 Calculation of three-center Coulomb integrals...
   1% done.
  12% done.
  23% done.
  34% done.
  45% done.
  56% done.
  67% done.
  78% done.
  89% done.
 100% done.
 CPU time [min]:   117.374                   Wall time [min]:     3.682

 ************************ 2023-04-26 04:14:12 *************************
 Executing drpa...

 Three-index integral transformation and DF-MP2 calculation
 
 Allocation of 200.0 Gbytes of memory...
 Minimal memory requirement for (ai|P) integrals:     1439.9 MB

 Calculating (ai|P) integrals...
 Number of integral batches:    1
 Occupied indices per batch:    5
 
 Transforming integrals of batch 1...
 CPU time [min]:    85.229                   Wall time [min]:     2.563
 
 
 
 Reference energy [au]:                      -112.753574607581
 DF-MP2 singlet pair energy [au]:              -0.224162589241
 DF-MP2 triplet pair energy [au]:              -0.080470238993
 DF-SCS-MP2 correlation energy [au]:           -0.295818520087
 DF-SCS-MP2 energy [au]:                     -113.049393127668
 DF-SOS-MP2 correlation energy [au]:           -0.291411366014
 DF-SOS-MP2 energy [au]:                     -113.044985973594
 DF-MP2 correlation energy [au]:               -0.304632828234
 DF-MP2 energy [au]:                         -113.058207435815
 
 ************************ 2023-04-26 04:16:46 *************************
                      Normal termination of mrcc.
 **********************************************************************
