 vasp.6.3.0 20Jan22 (build Apr  1 2022 16:44:48) complex                         
 executed on        HPECrayEX_GCC date 2023.05.17  13:41:27
 running  512 mpi-ranks, with    1 threads/rank
 distrk:  each k-point on  256 cores,    2 groups
 distr:  one band on NCORE=   4 cores,   64 groups


--------------------------------------------------------------------------------------------------------


 INCAR:
   SYSTEM = MgO-rocksalt
   ISMEAR = 0
   SIGMA = 0.05
   EDIFF = 1E-6
   ALGO = ALL
   ISTART = 0
   IBRION = -1
   NSW = 0
   ISYM = 2
   ISIF = 2
   EDIFFG = -0.01
   DIPOL = 0.5 0.5 0.5
   IDIPOL = 3
   LDIPOL = .TRUE.
   GGA = PE
   IVDW = 1
   VDW_C6 = 1.75 0.70 0.63 0.70
   VDW_R0 = 1.452 1.342 1.243 1.342
   ENCUT = 600
   PREC = Normal
   LASPH = .TRUE.
   LREAL = .FALSE.
   ISPIN = 1
   NELM = 200
   NELMIN = 8
   NCORE = 4
   KPAR = 2
   LWAVE = .FALSE.
   LCHARG = .FALSE.

 POTCAR:    PAW_PBE C 08Apr2002                   
 POTCAR:    PAW_PBE O 08Apr2002                   
 POTCAR:    PAW_PBE Mg_pv 13Apr2007               
 POTCAR:    PAW_PBE O 08Apr2002                   
 POTCAR:    PAW_PBE C 08Apr2002                   
   SHA256 =  253f7b50bb8d59471dbedb8285d89021f4a42ed1a2c5d38a03a736e69125dd95 C/POTCAR              
   COPYR  = (c) Copyright 08Apr2002 Georg Kresse                                                    
   COPYR  = This file is part of the software VASP. Any use, copying, and all other rights are regul
   COPYR  = If you do not have a valid VASP license, you may not use, copy or distribute this file. 
   VRHFIN =C: s2p2                                                                                  
   LEXCH  = PE                                                                                      
   EATOM  =   147.1560 eV,   10.8157 Ry                                                             
                                                                                                    
   TITEL  = PAW_PBE C 08Apr2002                                                                     
   LULTRA =        F    use ultrasoft PP ?                                                          
   IUNSCR =        1    unscreen: 0-lin 1-nonlin 2-no                                               
   RPACOR =    1.200    partial core radius                                                         
   POMASS =   12.011; ZVAL   =    4.000    mass and valenz                                          
   RCORE  =    1.500    outmost cutoff radius                                                       
   RWIGS  =    1.630; RWIGS  =    0.863    wigner-seitz radius (au A)                               
   ENMAX  =  400.000; ENMIN  =  300.000 eV                                                          
   ICORE  =        2    local potential                                                             
   LCOR   =        T    correct aug charges                                                         
   LPAW   =        T    paw PP                                                                      
   EAUG   =  644.873                                                                                
   DEXC   =    0.000                                                                                
   RMAX   =    1.529    core radius for proj-oper                                                   
   RAUG   =    1.300    factor for augmentation sphere                                              
   RDEP   =    1.501    radius for radial grids                                                     
   RDEPT  =    1.300    core radius for aug-charge                                                  
                                                                                                    
   Atomic configuration                                                                             
    4 entries                                                                                       
     n  l   j            E        occ.                                                              
     1  0  0.50      -273.3789   2.0000                                                             
     2  0  0.50       -13.7508   2.0000                                                             
     2  1  0.50        -5.2854   2.0000                                                             
     3  2  1.50        -5.4423   0.0000                                                             
   Description                                                                                      
     l       E           TYP  RCUT    TYP  RCUT                                                     
     0    -13.7508458     23  1.200                                                                 
     0     -8.2022199     23  1.200                                                                 
     1     -5.2854383     23  1.500                                                                 
     1     34.0145650     23  1.500                                                                 
     2     -5.4423304      7  1.500                                                                 
  local pseudopotential read in
  partial core-charges read in
  partial kinetic energy density read in
  atomic valenz-charges read in
  non local Contribution for L=           0  read in
    real space projection operators read in
  non local Contribution for L=           0  read in
    real space projection operators read in
  non local Contribution for L=           1  read in
    real space projection operators read in
  non local Contribution for L=           1  read in
    real space projection operators read in
    PAW grid and wavefunctions read in

   number of l-projection  operators is LMAX  =           4
   number of lm-projection operators is LMMAX =           8

 POTCAR:    PAW_PBE O 08Apr2002                   
   SHA256 =  818f92134a0a090dccd8ba1447fa70422a3b330e708bb4f08108d8ae51209ddf O/POTCAR              
   COPYR  = (c) Copyright 08Apr2002 Georg Kresse                                                    
   COPYR  = This file is part of the software VASP. Any use, copying, and all other rights are regul
   COPYR  = If you do not have a valid VASP license, you may not use, copy or distribute this file. 
   VRHFIN =O: s2p4                                                                                  
   LEXCH  = PE                                                                                      
   EATOM  =   432.3788 eV,   31.7789 Ry                                                             
                                                                                                    
   TITEL  = PAW_PBE O 08Apr2002                                                                     
   LULTRA =        F    use ultrasoft PP ?                                                          
   IUNSCR =        1    unscreen: 0-lin 1-nonlin 2-no                                               
   RPACOR =    1.200    partial core radius                                                         
   POMASS =   16.000; ZVAL   =    6.000    mass and valenz                                          
   RCORE  =    1.520    outmost cutoff radius                                                       
   RWIGS  =    1.550; RWIGS  =    0.820    wigner-seitz radius (au A)                               
   ENMAX  =  400.000; ENMIN  =  300.000 eV                                                          
   ICORE  =        2    local potential                                                             
   LCOR   =        T    correct aug charges                                                         
   LPAW   =        T    paw PP                                                                      
   EAUG   =  605.392                                                                                
   DEXC   =    0.000                                                                                
   RMAX   =    1.553    core radius for proj-oper                                                   
   RAUG   =    1.300    factor for augmentation sphere                                              
   RDEP   =    1.550    radius for radial grids                                                     
   RDEPT  =    1.329    core radius for aug-charge                                                  
                                                                                                    
   Atomic configuration                                                                             
    4 entries                                                                                       
     n  l   j            E        occ.                                                              
     1  0  0.50      -514.6923   2.0000                                                             
     2  0  0.50       -23.9615   2.0000                                                             
     2  1  0.50        -9.0305   4.0000                                                             
     3  2  1.50        -9.5241   0.0000                                                             
   Description                                                                                      
     l       E           TYP  RCUT    TYP  RCUT                                                     
     0    -23.9615318     23  1.200                                                                 
     0     -9.5240782     23  1.200                                                                 
     1     -9.0304911     23  1.520                                                                 
     1      8.1634956     23  1.520                                                                 
     2     -9.5240782      7  1.500                                                                 
  local pseudopotential read in
  partial core-charges read in
  partial kinetic energy density read in
  kinetic energy density of atom read in
  atomic valenz-charges read in
  non local Contribution for L=           0  read in
    real space projection operators read in
  non local Contribution for L=           0  read in
    real space projection operators read in
  non local Contribution for L=           1  read in
    real space projection operators read in
  non local Contribution for L=           1  read in
    real space projection operators read in
    PAW grid and wavefunctions read in

   number of l-projection  operators is LMAX  =           4
   number of lm-projection operators is LMMAX =           8

 POTCAR:    PAW_PBE Mg_pv 13Apr2007               
   SHA256 =  f474ac0dd33840b9ae76c01d57fea79fdf77cdfbb07d5ade72c65f83c709b62b Mg_pv/POTCAR          
   COPYR  = (c) Copyright 13Apr2007 Georg Kresse                                                    
   COPYR  = This file is part of the software VASP. Any use, copying, and all other rights are regul
   COPYR  = If you do not have a valid VASP license, you may not use, copy or distribute this file. 
   VRHFIN =Mg: p6s2                                                                                 
   LEXCH  = PE                                                                                      
   EATOM  =  1056.7344 eV,   77.6678 Ry                                                             
                                                                                                    
   TITEL  = PAW_PBE Mg_pv 13Apr2007                                                                 
   LULTRA =        F    use ultrasoft PP ?                                                          
   IUNSCR =        1    unscreen: 0-lin 1-nonlin 2-no                                               
   RPACOR =    1.500    partial core radius                                                         
   POMASS =   24.305; ZVAL   =    8.000    mass and valenz                                          
   RCORE  =    2.000    outmost cutoff radius                                                       
   RWIGS  =    2.000; RWIGS  =    1.058    wigner-seitz radius (au A)                               
   ENMAX  =  403.929; ENMIN  =  302.947 eV                                                          
   RCLOC  =    1.506    cutoff for local pot                                                        
   LCOR   =        T    correct aug charges                                                         
   LPAW   =        T    paw PP                                                                      
   EAUG   =  758.780                                                                                
   DEXC   =    0.000                                                                                
   RMAX   =    2.045    core radius for proj-oper                                                   
   RAUG   =    1.300    factor for augmentation sphere                                              
   RDEP   =    2.025    radius for radial grids                                                     
   RDEPT  =    1.557    core radius for aug-charge                                                  
                                                                                                    
   Atomic configuration                                                                             
    5 entries                                                                                       
     n  l   j            E        occ.                                                              
     1  0  0.50     -1259.6230   2.0000                                                             
     2  0  0.50       -79.8442   2.0000                                                             
     2  1  1.50       -46.6121   6.0000                                                             
     3  0  0.50        -4.7055   2.0000                                                             
     3  2  1.50        -1.3606   0.0000                                                             
   Description                                                                                      
     l       E           TYP  RCUT    TYP  RCUT                                                     
     1    -46.6121073     23  1.600                                                                 
     1      2.7211652     23  1.600                                                                 
     0     -4.7054661     23  2.000                                                                 
     0     61.2262170     23  2.000                                                                 
     2     -1.3605826     23  2.000                                                                 
  local pseudopotential read in
  partial core-charges read in
  partial kinetic energy density read in
  atomic valenz-charges read in
  non local Contribution for L=           1  read in
    real space projection operators read in
  non local Contribution for L=           1  read in
    real space projection operators read in
  non local Contribution for L=           0  read in
    real space projection operators read in
  non local Contribution for L=           0  read in
    real space projection operators read in
  non local Contribution for L=           2  read in
    real space projection operators read in
    PAW grid and wavefunctions read in

   number of l-projection  operators is LMAX  =           5
   number of lm-projection operators is LMMAX =          13

 POTCAR:    PAW_PBE O 08Apr2002                   
   SHA256 =  818f92134a0a090dccd8ba1447fa70422a3b330e708bb4f08108d8ae51209ddf O/POTCAR              
   COPYR  = (c) Copyright 08Apr2002 Georg Kresse                                                    
   COPYR  = This file is part of the software VASP. Any use, copying, and all other rights are regul
   COPYR  = If you do not have a valid VASP license, you may not use, copy or distribute this file. 
   VRHFIN =O: s2p4                                                                                  
   LEXCH  = PE                                                                                      
   EATOM  =   432.3788 eV,   31.7789 Ry                                                             
                                                                                                    
   TITEL  = PAW_PBE O 08Apr2002                                                                     
   LULTRA =        F    use ultrasoft PP ?                                                          
   IUNSCR =        1    unscreen: 0-lin 1-nonlin 2-no                                               
   RPACOR =    1.200    partial core radius                                                         
   POMASS =   16.000; ZVAL   =    6.000    mass and valenz                                          
   RCORE  =    1.520    outmost cutoff radius                                                       
   RWIGS  =    1.550; RWIGS  =    0.820    wigner-seitz radius (au A)                               
   ENMAX  =  400.000; ENMIN  =  300.000 eV                                                          
   ICORE  =        2    local potential                                                             
   LCOR   =        T    correct aug charges                                                         
   LPAW   =        T    paw PP                                                                      
   EAUG   =  605.392                                                                                
   DEXC   =    0.000                                                                                
   RMAX   =    1.553    core radius for proj-oper                                                   
   RAUG   =    1.300    factor for augmentation sphere                                              
   RDEP   =    1.550    radius for radial grids                                                     
   RDEPT  =    1.329    core radius for aug-charge                                                  
                                                                                                    
   Atomic configuration                                                                             
    4 entries                                                                                       
     n  l   j            E        occ.                                                              
     1  0  0.50      -514.6923   2.0000                                                             
     2  0  0.50       -23.9615   2.0000                                                             
     2  1  0.50        -9.0305   4.0000                                                             
     3  2  1.50        -9.5241   0.0000                                                             
   Description                                                                                      
     l       E           TYP  RCUT    TYP  RCUT                                                     
     0    -23.9615318     23  1.200                                                                 
     0     -9.5240782     23  1.200                                                                 
     1     -9.0304911     23  1.520                                                                 
     1      8.1634956     23  1.520                                                                 
     2     -9.5240782      7  1.500                                                                 
  local pseudopotential read in
  partial core-charges read in
  partial kinetic energy density read in
  kinetic energy density of atom read in
  atomic valenz-charges read in
  non local Contribution for L=           0  read in
    real space projection operators read in
  non local Contribution for L=           0  read in
    real space projection operators read in
  non local Contribution for L=           1  read in
    real space projection operators read in
  non local Contribution for L=           1  read in
    real space projection operators read in
    PAW grid and wavefunctions read in

   number of l-projection  operators is LMAX  =           4
   number of lm-projection operators is LMMAX =           8

 -----------------------------------------------------------------------------
|                                                                             |
|               ----> ADVICE to this user running VASP <----                  |
|                                                                             |
|     You have a (more or less) 'large supercell' and for larger cells it     |
|     might be more efficient to use real-space projection operators.         |
|     Therefore, try LREAL= Auto in the INCAR file.                           |
|     Mind: For very accurate calculation, you might also keep the            |
|     reciprocal projection scheme (i.e. LREAL=.FALSE.).                      |
|                                                                             |
 -----------------------------------------------------------------------------

  PAW_PBE C 08Apr2002                   :
 energy of atom  1       EATOM= -147.1560
 kinetic energy error for atom=    0.0057 (will be added to EATOM!!)
  PAW_PBE O 08Apr2002                   :
 energy of atom  2       EATOM= -432.3788
 kinetic energy error for atom=    0.0168 (will be added to EATOM!!)
  PAW_PBE Mg_pv 13Apr2007               :
 energy of atom  3       EATOM=-1056.7344
 kinetic energy error for atom=    0.0221 (will be added to EATOM!!)
  PAW_PBE O 08Apr2002                   :
 energy of atom  4       EATOM= -432.3788
 kinetic energy error for atom=    0.0168 (will be added to EATOM!!)


 POSCAR:  C  O Mg  O
  positions in direct lattice
  No initial velocities read in
 exchange correlation table for  LEXCH =        8
   RHO(1)=    0.500       N(1)  =     2000
   RHO(2)=  100.500       N(2)  =     4000



--------------------------------------------------------------------------------------------------------


 ion  position               nearest neighbor table
   1  0.500  0.500  0.770-   2 1.15
   2  0.500  0.500  0.823-   1 1.15
   3  0.000  0.750  0.352-  35 2.11  37 2.11  38 2.11  45 2.11  54 2.11
   4  0.250  0.000  0.352-  36 2.11  37 2.11  38 2.11  46 2.11  53 2.11
   5  0.000  0.000  0.451-  37 2.11  36 2.11  35 2.11  43 2.11  52 2.11  41 2.12
   6  0.250  0.750  0.451-  38 2.11  36 2.11  35 2.11  44 2.11  51 2.11  42 2.12
   7  0.000  0.750  0.550-  49 2.11  42 2.11  58 2.11  41 2.11  35 2.12  39 2.15
   8  0.250  0.000  0.550-  57 2.11  50 2.11  42 2.11  41 2.11  36 2.12  40 2.15
   9  0.000  0.000  0.649-  39 2.11  40 2.11  47 2.11  56 2.11  41 2.11
  10  0.250  0.750  0.649-  42 2.11  40 2.11  39 2.11  48 2.11  55 2.11
  11  0.000  0.250  0.352-  43 2.11  37 2.11  45 2.11  46 2.11  62 2.11
  12  0.250  0.500  0.352-  44 2.11  38 2.11  45 2.11  46 2.11  61 2.11
  13  0.000  0.500  0.451-  45 2.11  43 2.11  44 2.11  35 2.11  60 2.11  49 2.12
  14  0.250  0.250  0.451-  46 2.11  43 2.11  44 2.11  36 2.11  59 2.11  50 2.12
  15  0.000  0.250  0.550-  49 2.11  50 2.11  66 2.11  41 2.11  43 2.12  47 2.15
  16  0.250  0.500  0.550-  65 2.11  50 2.11  42 2.11  49 2.11  44 2.13  48 2.15
  17  0.000  0.500  0.649-  48 2.10  64 2.10  49 2.11  47 2.11  39 2.11
  18  0.250  0.250  0.649-  50 2.11  47 2.11  40 2.11  48 2.11  63 2.11
  19  0.500  0.750  0.352-  51 2.11  38 2.11  53 2.11  54 2.11  61 2.11
  20  0.750  0.000  0.352-  52 2.11  37 2.11  53 2.11  54 2.11  62 2.11
  21  0.500  0.000  0.451-  53 2.11  51 2.11  52 2.11  36 2.11  59 2.11  57 2.12
  22  0.750  0.750  0.451-  54 2.11  51 2.11  52 2.11  35 2.11  60 2.11  58 2.12
  23  0.500  0.750  0.550-  65 2.11  58 2.11  42 2.11  57 2.11  51 2.13  55 2.15
  24  0.750  0.000  0.550-  57 2.11  58 2.11  66 2.11  41 2.11  52 2.12  56 2.15
  25  0.500  0.000  0.649-  55 2.10  63 2.10  57 2.11  40 2.11  56 2.11
  26  0.750  0.750  0.649-  58 2.11  56 2.11  39 2.11  55 2.11  64 2.11
  27  0.500  0.250  0.352-  59 2.11  53 2.11  46 2.11  61 2.11  62 2.11
  28  0.750  0.500  0.352-  60 2.11  54 2.11  45 2.11  61 2.11  62 2.11
  29  0.500  0.500  0.451-  61 2.11  51 2.11  59 2.11  60 2.11  44 2.11  65 2.13
  30  0.750  0.250  0.451-  62 2.11  52 2.11  59 2.11  60 2.11  43 2.11  66 2.12
  31  0.500  0.250  0.550-  65 2.11  50 2.11  66 2.11  57 2.11  59 2.13  63 2.15
  32  0.750  0.500  0.550-  65 2.11  58 2.11  66 2.11  49 2.11  60 2.13  64 2.15
  33  0.500  0.500  0.651-  48 2.12  55 2.12  63 2.12  64 2.12  65 2.14
  34  0.750  0.250  0.649-  66 2.11  56 2.11  47 2.11  64 2.11  63 2.11
  35  0.000  0.750  0.451-   3 2.11   5 2.11   6 2.11  13 2.11  22 2.11   7 2.12
  36  0.250  0.000  0.451-   4 2.11   5 2.11   6 2.11  14 2.11  21 2.11   8 2.12
  37  0.000  0.000  0.352-   5 2.11   4 2.11   3 2.11  11 2.11  20 2.11
  38  0.250  0.750  0.352-   6 2.11   4 2.11   3 2.11  12 2.11  19 2.11
  39  0.000  0.750  0.651-   9 2.11  10 2.11  26 2.11  17 2.11   7 2.15
  40  0.250  0.000  0.651-   9 2.11  10 2.11  18 2.11  25 2.11   8 2.15
  41  0.000  0.000  0.550-   9 2.11   8 2.11   7 2.11  15 2.11  24 2.11   5 2.12
  42  0.250  0.750  0.550-  10 2.11   8 2.11   7 2.11  16 2.11  23 2.11   6 2.12
  43  0.000  0.250  0.451-  11 2.11   5 2.11  13 2.11  14 2.11  30 2.11  15 2.12
  44  0.250  0.500  0.451-  12 2.11   6 2.11  13 2.11  14 2.11  29 2.11  16 2.13
  45  0.000  0.500  0.352-  13 2.11  11 2.11  12 2.11   3 2.11  28 2.11
  46  0.250  0.250  0.352-  14 2.11  11 2.11  12 2.11   4 2.11  27 2.11
  47  0.000  0.250  0.651-   9 2.11  18 2.11  34 2.11  17 2.11  15 2.15
  48  0.249  0.500  0.651-  17 2.10  10 2.11  18 2.11  33 2.12  16 2.15
  49  0.000  0.500  0.550-  17 2.11  15 2.11   7 2.11  16 2.11  32 2.11  13 2.12
  50  0.250  0.250  0.550-  18 2.11  15 2.11   8 2.11  16 2.11  31 2.11  14 2.12
  51  0.500  0.750  0.451-  19 2.11   6 2.11  21 2.11  22 2.11  29 2.11  23 2.13
  52  0.750  0.000  0.451-  20 2.11   5 2.11  21 2.11  22 2.11  30 2.11  24 2.12
  53  0.500  0.000  0.352-  21 2.11  19 2.11  20 2.11   4 2.11  27 2.11
  54  0.750  0.750  0.352-  22 2.11  19 2.11  20 2.11   3 2.11  28 2.11
  55  0.500  0.751  0.651-  25 2.10  10 2.11  26 2.11  33 2.12  23 2.15
  56  0.750  0.000  0.651-   9 2.11  26 2.11  34 2.11  25 2.11  24 2.15
  57  0.500  0.000  0.550-  25 2.11  24 2.11   8 2.11  23 2.11  31 2.11  21 2.12
  58  0.750  0.750  0.550-  26 2.11  24 2.11   7 2.11  32 2.11  23 2.11  22 2.12
  59  0.500  0.250  0.451-  27 2.11  21 2.11  14 2.11  29 2.11  30 2.11  31 2.13
  60  0.750  0.500  0.451-  28 2.11  22 2.11  13 2.11  29 2.11  30 2.11  32 2.13
  61  0.500  0.500  0.352-  29 2.11  19 2.11  27 2.11  28 2.11  12 2.11
  62  0.750  0.250  0.352-  30 2.11  20 2.11  27 2.11  28 2.11  11 2.11
  63  0.500  0.249  0.651-  25 2.10  18 2.11  34 2.11  33 2.12  31 2.15
  64  0.751  0.500  0.651-  17 2.10  26 2.11  34 2.11  33 2.12  32 2.15
  65  0.500  0.500  0.550-  16 2.11  23 2.11  31 2.11  32 2.11  29 2.13  33 2.14
  66  0.750  0.250  0.550-  34 2.11  24 2.11  15 2.11  32 2.11  31 2.11  30 2.12

  LATTYP: Found a simple tetragonal cell.
 ALAT       =     8.4409846542
 C/A-ratio  =     2.5270438657
  
  Lattice vectors:
  
 A1 = (   8.4409846542,   0.0000000000,   0.0000000000)
 A2 = (   0.0000000000,   8.4409846542,   0.0000000000)
 A3 = (   0.0000000000,   0.0000000000,  21.3307384906)


Analysis of symmetry for initial positions (statically):
=====================================================================
 Subroutine PRICEL returns:
 Original cell was already a primitive cell.
 

 Routine SETGRP: Setting up the symmetry group for a 
 simple tetragonal supercell.


 Subroutine GETGRP returns: Found  8 space group operations
 (whereof  8 operations were pure point group operations)
 out of a pool of 16 trial point group operations.


The static configuration has the point symmetry C_4v.


Analysis of symmetry for dynamics (positions and initial velocities):
=====================================================================
 Subroutine PRICEL returns:
 Original cell was already a primitive cell.
 

 Routine SETGRP: Setting up the symmetry group for a 
 simple tetragonal supercell.


 Subroutine GETGRP returns: Found  8 space group operations
 (whereof  8 operations were pure point group operations)
 out of a pool of 16 trial point group operations.


The dynamic configuration has the point symmetry C_4v.


 Subroutine INISYM returns: Found  8 space group operations
 (whereof  8 operations are pure point group operations),
 and found     1 'primitive' translations


----------------------------------------------------------------------------------------

                                     Primitive cell                                     

  volume of cell :    1519.8199

  direct lattice vectors                    reciprocal lattice vectors
     8.440984654  0.000000000  0.000000000     0.118469591  0.000000000  0.000000000
     0.000000000  8.440984654  0.000000000     0.000000000  0.118469591  0.000000000
     0.000000000  0.000000000 21.330738491     0.000000000  0.000000000  0.046880702

  length of vectors
     8.440984654  8.440984654 21.330738491     0.118469591  0.118469591  0.046880702

  position of ions in fractional coordinates (direct lattice)
     0.500000000  0.500000000  0.769693944
     0.500000000  0.500000000  0.823457662
     0.000000000  0.750000000  0.351605267
     0.250000000  0.000000000  0.351605267
     0.000000000  0.000000000  0.450535089
     0.250000000  0.750000000  0.450535089
     0.000000000  0.749939268  0.550083239
     0.250060732  0.000000000  0.550083239
     0.000000000  0.000000000  0.648745309
     0.249858327  0.750141673  0.648569547
     0.000000000  0.250000000  0.351605267
     0.250000000  0.500000000  0.351605267
     0.000000000  0.500000000  0.450535089
     0.250000000  0.250000000  0.450535089
     0.000000000  0.250060732  0.550083239
     0.250378379  0.500000000  0.550219524
     0.000000000  0.500000000  0.648615280
     0.249858327  0.249858327  0.648569547
     0.500000000  0.750000000  0.351605267
     0.750000000  0.000000000  0.351605267
     0.500000000  0.000000000  0.450535089
     0.750000000  0.750000000  0.450535089
     0.500000000  0.749621621  0.550219524
     0.749939268  0.000000000  0.550083239
     0.500000000  0.000000000  0.648615280
     0.750141673  0.750141673  0.648569547
     0.500000000  0.250000000  0.351605267
     0.750000000  0.500000000  0.351605267
     0.500000000  0.500000000  0.450535089
     0.750000000  0.250000000  0.450535089
     0.500000000  0.250378379  0.550219524
     0.749621621  0.500000000  0.550219524
     0.500000000  0.500000000  0.650616960
     0.750141673  0.249858327  0.648569547
     0.000000000  0.750000000  0.450535089
     0.250000000  0.000000000  0.450535089
     0.000000000  0.000000000  0.351605267
     0.250000000  0.750000000  0.351605267
     0.000000000  0.750218533  0.650979255
     0.249781467  0.000000000  0.650979255
     0.000000000  0.000000000  0.549809890
     0.249945770  0.750054230  0.549859113
     0.000000000  0.250000000  0.450535089
     0.250000000  0.500000000  0.450535089
     0.000000000  0.500000000  0.351605267
     0.250000000  0.250000000  0.351605267
     0.000000000  0.249781467  0.650979255
     0.248822710  0.500000000  0.650882872
     0.000000000  0.500000000  0.549762666
     0.249945770  0.249945770  0.549859113
     0.500000000  0.750000000  0.450535089
     0.750000000  0.000000000  0.450535089
     0.500000000  0.000000000  0.351605267
     0.750000000  0.750000000  0.351605267
     0.500000000  0.751177290  0.650882872
     0.750218533  0.000000000  0.650979255
     0.500000000  0.000000000  0.549762666
     0.750054230  0.750054230  0.549859113
     0.500000000  0.250000000  0.450535089
     0.750000000  0.500000000  0.450535089
     0.500000000  0.500000000  0.351605267
     0.750000000  0.250000000  0.351605267
     0.500000000  0.248822710  0.650882872
     0.751177290  0.500000000  0.650882872
     0.500000000  0.500000000  0.550231357
     0.750054230  0.249945770  0.549859113

  ion indices of the primitive-cell ions
   primitive index   ion index
                 1           1
                 2           2
                 3           3
                 4           4
                 5           5
                 6           6
                 7           7
                 8           8
                 9           9
                10          10
                11          11
                12          12
                13          13
                14          14
                15          15
                16          16
                17          17
                18          18
                19          19
                20          20
                21          21
                22          22
                23          23
                24          24
                25          25
                26          26
                27          27
                28          28
                29          29
                30          30
                31          31
                32          32
                33          33
                34          34
                35          35
                36          36
                37          37
                38          38
                39          39
                40          40
                41          41
                42          42
                43          43
                44          44
                45          45
                46          46
                47          47
                48          48
                49          49
                50          50
                51          51
                52          52
                53          53
                54          54
                55          55
                56          56
                57          57
                58          58
                59          59
                60          60
                61          61
                62          62
                63          63
                64          64
                65          65
                66          66

----------------------------------------------------------------------------------------



 KPOINTS: pymatgen v2020.8.13 with grid density = 

Automatic generation of k-mesh.
 Grid dimensions read from file:
 generate k-points for:    2    2    1

 Generating k-lattice:

  Cartesian coordinates                     Fractional coordinates (reciprocal lattice)
     0.059234796  0.000000000  0.000000000     0.500000000  0.000000000  0.000000000
     0.000000000  0.059234796  0.000000000     0.000000000  0.500000000  0.000000000
     0.000000000  0.000000000  0.046880702     0.000000000  0.000000000  1.000000000

  Length of vectors
     0.059234796  0.059234796  0.046880702

  Shift w.r.t. Gamma in fractional coordinates (k-lattice)
     0.000000000  0.000000000  0.000000000

 
 Subroutine IBZKPT returns following result:
 ===========================================
 
 Found      3 irreducible k-points:
 
 Following reciprocal coordinates:
            Coordinates               Weight
  0.000000  0.000000  0.000000      1.000000
  0.500000  0.000000  0.000000      2.000000
  0.500000  0.500000  0.000000      1.000000
 
 Following cartesian coordinates:
            Coordinates               Weight
  0.000000  0.000000  0.000000      1.000000
  0.059235  0.000000  0.000000      2.000000
  0.059235  0.059235  0.000000      1.000000
 


--------------------------------------------------------------------------------------------------------




 Dimension of arrays:
   k-points           NKPTS =      3   k-points in BZ     NKDIM =      3   number of bands    NBANDS=    320
   number of dos      NEDOS =    301   number of ions     NIONS =     66
   non local maximal  LDIM  =      5   non local SUM 2l+1 LMDIM =     13
   total plane-waves  NPLWV = 373248
   max r-space proj   IRMAX =      1   max aug-charges    IRDMAX=   5039
   dimension x,y,z NGX =    54 NGY =   54 NGZ =  128
   dimension x,y,z NGXF=   108 NGYF=  108 NGZF=  256
   support grid    NGXF=   108 NGYF=  108 NGZF=  256
   ions per type =               1   1  32  32
   NGX,Y,Z   is equivalent  to a cutoff of  10.64, 10.64,  9.98 a.u.
   NGXF,Y,Z  is equivalent  to a cutoff of  21.27, 21.27, 19.95 a.u.

 SYSTEM =  MgO-rocksalt                            
 POSCAR =   C  O Mg  O                             

 Startparameter for this run:
   NWRITE =      2    write-flag & timer
   PREC   = normal    normal or accurate (medium, high low for compatibility)
   ISTART =      0    job   : 0-new  1-cont  2-samecut
   ICHARG =      2    charge: 1-file 2-atom 10-const
   ISPIN  =      1    spin polarized calculation?
   LNONCOLLINEAR =      F non collinear calculations
   LSORBIT =      F    spin-orbit coupling
   INIWAV =      1    electr: 0-lowe 1-rand  2-diag
   LASPH  =      T    aspherical Exc in radial PAW
 Electronic Relaxation 1
   ENCUT  =  600.0 eV  44.10 Ry    6.64 a.u.  16.86 16.86 42.60*2*pi/ulx,y,z
   ENINI  =  600.0     initial cutoff
   ENAUG  =  758.8 eV  augmentation charge cutoff
   NELM   =    200;   NELMIN=  8; NELMDL= -5     # of ELM steps 
   EDIFF  = 0.1E-05   stopping-criterion for ELM
   LREAL  =      F    real-space projection
   NLSPLINE    = F    spline interpolate recip. space projectors
   LCOMPAT=      F    compatible to vasp.4.4
   GGA_COMPAT  = T    GGA compatible to vasp.4.4-vasp.4.6
   LMAXPAW     = -100 max onsite density
   LMAXMIX     =    2 max onsite mixed and CHGCAR
   VOSKOWN=      0    Vosko Wilk Nusair interpolation
   ROPT   =    0.00000   0.00000   0.00000   0.00000
 Ionic relaxation
   EDIFFG = -.1E-01   stopping-criterion for IOM
   NSW    =      0    number of steps for IOM
   NBLOCK =      1;   KBLOCK =      1    inner block; outer block 
   IBRION =     -1    ionic relax: 0-MD 1-quasi-New 2-CG
   NFREE  =      0    steps in history (QN), initial steepest desc. (CG)
   ISIF   =      2    stress and relaxation
   IWAVPR =     10    prediction:  0-non 1-charg 2-wave 3-comb
   ISYM   =      2    0-nonsym 1-usesym 2-fastsym
   LCORR  =      T    Harris-Foulkes like correction to forces

   POTIM  = 0.5000    time-step for ionic-motion
   TEIN   =    0.0    initial temperature
   TEBEG  =    0.0;   TEEND  =   0.0 temperature during run
   SMASS  =  -3.00    Nose mass-parameter (am)
   estimated Nose-frequenzy (Omega)   =  0.10E-29 period in steps = 0.13E+47 mass=  -0.163E-26a.u.
   SCALEE = 1.0000    scale energy and forces
   NPACO  =    256;   APACO  = 10.0  distance and # of slots for P.C.
   PSTRESS=    0.0 pullay stress

  Mass of Ions in am
   POMASS =  12.01 16.00 24.30 16.00
  Ionic Valenz
   ZVAL   =   4.00  6.00  8.00  6.00
  Atomic Wigner-Seitz radii
   RWIGS  =  -1.00 -1.00 -1.00 -1.00
  virtual crystal weights 
   VCA    =   1.00  1.00  1.00  1.00
   NELECT =     458.0000    total number of electrons
   NUPDOWN=      -1.0000    fix difference up-down

 DOS related values:
   EMIN   =  10.00;   EMAX   =-10.00  energy-range for DOS
   EFERMI =   0.00
   ISMEAR =     0;   SIGMA  =   0.05  broadening in eV -4-tet -1-fermi 0-gaus

 Electronic relaxation 2 (details)
   IALGO  =     58    algorithm
   LDIAG  =      T    sub-space diagonalisation (order eigenvalues)
   LSUBROT=      F    optimize rotation matrix (better conditioning)
   TURBO    =      0    0=normal 1=particle mesh
   IRESTART =      0    0=no restart 2=restart with 2 vectors
   NREBOOT  =      0    no. of reboots
   NMIN     =      0    reboot dimension
   EREF     =   0.00    reference energy to select bands
   IMIX   =      4    mixing-type and parameters
     AMIX     =   0.40;   BMIX     =  1.00
     AMIX_MAG =   1.60;   BMIX_MAG =  1.00
     AMIN     =   0.10
     WC   =   100.;   INIMIX=   1;  MIXPRE=   1;  MAXMIX= -45

 Intra band minimization:
   WEIMIN = 0.0000     energy-eigenvalue tresh-hold
   EBREAK =  0.78E-09  absolut break condition
   DEPER  =   0.30     relativ break condition  

   TIME   =   0.40     timestep for ELM

  volume/ion in A,a.u.               =      23.03       155.40
  Fermi-wavevector in a.u.,A,eV,Ry     =   1.097571  2.074108 16.390423  1.204662
  Thomas-Fermi vector in A             =   2.233933

 Write flags
   LWAVE        =      F    write WAVECAR
   LDOWNSAMPLE  =      F    k-point downsampling of WAVECAR
   LCHARG       =      F    write CHGCAR
   LVTOT        =      F    write LOCPOT, total local potential
   LVHAR        =      F    write LOCPOT, Hartree potential only
   LELF         =      F    write electronic localiz. function (ELF)
   LORBIT       =      0    0 simple, 1 ext, 2 COOP (PROOUT), +10 PAW based schemes


 Dipole corrections
   LMONO  =      F    monopole corrections only (constant potential shift)
   LDIPOL =      T    correct potential (dipole corrections)
   IDIPOL =      3    1-x, 2-y, 3-z, 4-all directions 
   EPSILON=  1.0000000 bulk dielectric constant

 Exchange correlation treatment:
   GGA     =    PE    GGA type
   LEXCH   =     8    internal setting for exchange type
   LIBXC   =     F    Libxc                    
   VOSKOWN =     0    Vosko Wilk Nusair interpolation
   LHFCALC =     F    Hartree Fock is set to
   LHFONE  =     F    Hartree Fock one center treatment
   AEXX    =    0.0000 exact exchange contribution

 Linear response parameters
   LEPSILON=     F    determine dielectric tensor
   LRPA    =     F    only Hartree local field effects (RPA)
   LNABLA  =     F    use nabla operator in PAW spheres
   LVEL    =     F    velocity operator in full k-point grid
   CSHIFT  =0.1000    complex shift for real part using Kramers Kronig
   OMEGAMAX=  -1.0    maximum frequency
   DEG_THRESHOLD= 0.2000000E-02 threshold for treating states as degnerate
   RTIME   =   -0.100 relaxation time in fs
  (WPLASMAI=    0.000 imaginary part of plasma frequency in eV, 0.658/RTIME)
   DFIELD  = 0.0000000 0.0000000 0.0000000 field for delta impulse in time

  Optional k-point grid parameters
   LKPOINTS_OPT  =     F    use optional k-point grid
   KPOINTS_OPT_MODE=     1    mode for optional k-point grid

 Orbital magnetization related:
   ORBITALMAG=     F  switch on orbital magnetization
   LCHIMAG   =     F  perturbation theory with respect to B field
   DQ        =  0.001000  dq finite difference perturbation B field
   LLRAUG    =     F  two centre corrections for induced B field



--------------------------------------------------------------------------------------------------------


 Static calculation
 charge density and potential will be updated during run
 non-spin polarized calculation
 Conjugate gradient for all bands (Freysoldt, et al. PRB 79, 241103 (2009))
 preconditioned conjugated gradient                                        
 perform sub-space diagonalisation
    before iterative eigenvector-optimisation
 modified Broyden-mixing scheme, WC =      100.0
 initial mixing is a Kerker type mixing with AMIX =  0.4000 and BMIX =      1.0000
 Hartree-type preconditioning will be used
 using additional bands           91
 reciprocal scheme for non local part
 use partial core corrections
 no Harris-corrections to forces 
 use gradient corrections 
 use of overlap-Matrix (Vanderbilt PP)
 Gauss-broadening in eV      SIGMA  =   0.05


--------------------------------------------------------------------------------------------------------


  energy-cutoff  :      600.00
  volume of cell :     1519.82
      direct lattice vectors                 reciprocal lattice vectors
     8.440984654  0.000000000  0.000000000     0.118469591  0.000000000  0.000000000
     0.000000000  8.440984654  0.000000000     0.000000000  0.118469591  0.000000000
     0.000000000  0.000000000 21.330738491     0.000000000  0.000000000  0.046880702

  length of vectors
     8.440984654  8.440984654 21.330738491     0.118469591  0.118469591  0.046880702



 k-points in units of 2pi/SCALE and weight: pymatgen v2020.8.13 with grid density = 
   0.00000000  0.00000000  0.00000000       0.250
   0.05923480  0.00000000  0.00000000       0.500
   0.05923480  0.05923480  0.00000000       0.250

 k-points in reciprocal lattice and weights: pymatgen v2020.8.13 with grid density = 
   0.00000000  0.00000000  0.00000000       0.250
   0.50000000  0.00000000  0.00000000       0.500
   0.50000000  0.50000000  0.00000000       0.250

 position of ions in fractional coordinates (direct lattice) 
   0.50000000  0.50000000  0.76969394
   0.50000000  0.50000000  0.82345766
   0.00000000  0.75000000  0.35160527
   0.25000000  0.00000000  0.35160527
   0.00000000  0.00000000  0.45053509
   0.25000000  0.75000000  0.45053509
   0.00000000  0.74993927  0.55008324
   0.25006073  0.00000000  0.55008324
   0.00000000  0.00000000  0.64874531
   0.24985833  0.75014167  0.64856955
   0.00000000  0.25000000  0.35160527
   0.25000000  0.50000000  0.35160527
   0.00000000  0.50000000  0.45053509
   0.25000000  0.25000000  0.45053509
   0.00000000  0.25006073  0.55008324
   0.25037838  0.50000000  0.55021952
   0.00000000  0.50000000  0.64861528
   0.24985833  0.24985833  0.64856955
   0.50000000  0.75000000  0.35160527
   0.75000000  0.00000000  0.35160527
   0.50000000  0.00000000  0.45053509
   0.75000000  0.75000000  0.45053509
   0.50000000  0.74962162  0.55021952
   0.74993927  0.00000000  0.55008324
   0.50000000  0.00000000  0.64861528
   0.75014167  0.75014167  0.64856955
   0.50000000  0.25000000  0.35160527
   0.75000000  0.50000000  0.35160527
   0.50000000  0.50000000  0.45053509
   0.75000000  0.25000000  0.45053509
   0.50000000  0.25037838  0.55021952
   0.74962162  0.50000000  0.55021952
   0.50000000  0.50000000  0.65061696
   0.75014167  0.24985833  0.64856955
   0.00000000  0.75000000  0.45053509
   0.25000000  0.00000000  0.45053509
   0.00000000  0.00000000  0.35160527
   0.25000000  0.75000000  0.35160527
   0.00000000  0.75021853  0.65097926
   0.24978147  0.00000000  0.65097926
   0.00000000  0.00000000  0.54980989
   0.24994577  0.75005423  0.54985911
   0.00000000  0.25000000  0.45053509
   0.25000000  0.50000000  0.45053509
   0.00000000  0.50000000  0.35160527
   0.25000000  0.25000000  0.35160527
   0.00000000  0.24978147  0.65097926
   0.24882271  0.50000000  0.65088287
   0.00000000  0.50000000  0.54976267
   0.24994577  0.24994577  0.54985911
   0.50000000  0.75000000  0.45053509
   0.75000000  0.00000000  0.45053509
   0.50000000  0.00000000  0.35160527
   0.75000000  0.75000000  0.35160527
   0.50000000  0.75117729  0.65088287
   0.75021853  0.00000000  0.65097926
   0.50000000  0.00000000  0.54976267
   0.75005423  0.75005423  0.54985911
   0.50000000  0.25000000  0.45053509
   0.75000000  0.50000000  0.45053509
   0.50000000  0.50000000  0.35160527
   0.75000000  0.25000000  0.35160527
   0.50000000  0.24882271  0.65088287
   0.75117729  0.50000000  0.65088287
   0.50000000  0.50000000  0.55023136
   0.75005423  0.24994577  0.54985911

 position of ions in cartesian coordinates  (Angst):
   4.22049233  4.22049233 16.41814023
   4.22049233  4.22049233 17.56496005
   0.00000000  6.33073849  7.50000000
   2.11024616  0.00000000  7.50000000
   0.00000000  0.00000000  9.61024616
   2.11024616  6.33073849  9.61024616
   0.00000000  6.33022585 11.73368172
   2.11075880  0.00000000 11.73368172
   0.00000000  0.00000000 13.83821654
   2.10905031  6.33193435 13.83446740
   0.00000000  2.11024616  7.50000000
   2.11024616  4.22049233  7.50000000
   0.00000000  4.22049233  9.61024616
   2.11024616  2.11024616  9.61024616
   0.00000000  2.11075880 11.73368172
   2.11344006  4.22049233 11.73658877
   0.00000000  4.22049233 13.83544293
   2.10905031  2.10905031 13.83446740
   4.22049233  6.33073849  7.50000000
   6.33073849  0.00000000  7.50000000
   4.22049233  0.00000000  9.61024616
   6.33073849  6.33073849  9.61024616
   4.22049233  6.32754460 11.73658877
   6.33022585  0.00000000 11.73368172
   4.22049233  0.00000000 13.83544293
   6.33193435  6.33193435 13.83446740
   4.22049233  2.11024616  7.50000000
   6.33073849  4.22049233  7.50000000
   4.22049233  4.22049233  9.61024616
   6.33073849  2.11024616  9.61024616
   4.22049233  2.11344006 11.73658877
   6.32754460  4.22049233 11.73658877
   4.22049233  4.22049233 13.87814023
   6.33193435  2.10905031 13.83446740
   0.00000000  6.33073849  9.61024616
   2.11024616  0.00000000  9.61024616
   0.00000000  0.00000000  7.50000000
   2.11024616  6.33073849  7.50000000
   0.00000000  6.33258312 13.88586825
   2.10840153  0.00000000 13.88586825
   0.00000000  0.00000000 11.72785099
   2.10978841  6.33119624 11.72890095
   0.00000000  2.11024616  9.61024616
   2.11024616  4.22049233  9.61024616
   0.00000000  4.22049233  7.50000000
   2.11024616  2.11024616  7.50000000
   0.00000000  2.10840153 13.88586825
   2.10030867  4.22049233 13.88381232
   0.00000000  4.22049233 11.72684365
   2.10978841  2.10978841 11.72890095
   4.22049233  6.33073849  9.61024616
   6.33073849  0.00000000  9.61024616
   4.22049233  0.00000000  7.50000000
   6.33073849  6.33073849  7.50000000
   4.22049233  6.34067598 13.88381232
   6.33258312  0.00000000 13.88586825
   4.22049233  0.00000000 11.72684365
   6.33119624  6.33119624 11.72890095
   4.22049233  2.11024616  9.61024616
   6.33073849  4.22049233  9.61024616
   4.22049233  4.22049233  7.50000000
   6.33073849  2.11024616  7.50000000
   4.22049233  2.10030867 13.88381232
   6.34067598  4.22049233 13.88381232
   4.22049233  4.22049233 11.73684118
   6.33119624  2.10978841 11.72890095



--------------------------------------------------------------------------------------------------------


 k-point   1 :   0.0000 0.0000 0.0000  plane waves:   50745
 k-point   2 :   0.5000 0.0000 0.0000  plane waves:   50798
 k-point   3 :   0.5000 0.5000 0.0000  plane waves:   50752

 maximum and minimum number of plane-waves per node :     12720    12632

 maximum number of plane-waves:     50798
 maximum index in each direction: 
   IXMAX=   16   IYMAX=   16   IZMAX=   42
   IXMIN=  -17   IYMIN=  -17   IZMIN=  -42


 parallel 3D FFT for wavefunctions:
    minimum data exchange during FFTs selected (reduces bandwidth)
 parallel 3D FFT for charge:
    minimum data exchange during FFTs selected (reduces bandwidth)


 total amount of memory used by VASP MPI-rank0    78528. kBytes
=======================================================================

   base      :      30000. kBytes
   nonl-proj :      29343. kBytes
   fftplans  :       3857. kBytes
   grid      :       5885. kBytes
   one-center:        137. kBytes
   wavefun   :       9306. kBytes

     INWAV:  cpu time      0.0000: real time      0.0000
 Broyden mixing: mesh for mixing (old mesh)
   NGX = 33   NGY = 33   NGZ = 85
  (NGX  =108   NGY  =108   NGZ  =256)
  gives a total of  92565 points

 initial charge density was supplied:
 charge density of overlapping atoms calculated
 number of electron     458.0000000 magnetization 
 keeping initial charge density in first step


--------------------------------------------------------------------------------------------------------


 Maximum index for augmentation-charges          334 (set IRDMAX)


--------------------------------------------------------------------------------------------------------


 First call to EWALD:  gamma=   0.154
 Maximum number of real-space cells 4x 4x 2
 Maximum number of reciprocal cells 2x 2x 5

    FEWALD:  cpu time      0.0076: real time      0.0076


--------------------------------------- Iteration      1(   1)  ---------------------------------------


    POTLOK:  cpu time      0.0435: real time      0.0444
    SETDIJ:  cpu time      0.1281: real time      0.1281
    TRIAL :  cpu time      5.4057: real time      5.4964
    CORREC:  cpu time      0.0013: real time      0.0013
    --------------------------------------------
      LOOP:  cpu time      5.5804: real time      5.7360

 eigenvalue-minimisations  :  2304
 total energy-change (2. order) : 0.4153141E+04  (-0.3066756E+05)
 number of electron     458.0000000 magnetization 
 augmentation part      458.0000000 magnetization 

 DIPCOR: dipole corrections for dipol
 direction  3 min pos     1,
 dipolmoment           0.000000      0.000000     -0.000323 electrons x Angstroem
 Tr[quadrupol]     -6318.707789

 energy correction for charged system         0.000000 eV
 dipol+quadrupol energy correction           -0.000000 eV
 added-field ion interaction          0.002652 eV  (added to PSCEN)


 Free energy of the ion-electron system (eV)
  ---------------------------------------------------
  alpha Z        PSCENC =       907.96675598
  Ewald energy   TEWEN  =    136916.56303857
  -Hartree energ DENC   =   -173015.98453975
  -exchange      EXHF   =         0.00000000
  -V(xc)+E(xc)   XCENC  =      1789.13462966
  PAW double counting   =     32310.01086261   -36145.30683839
  entropy T*S    EENTRO =        -0.02318151
  eigenvalues    EBANDS =     -6839.10843596
  atomic energy  EATOM  =     48229.88884101
  ---------------------------------------------------
  free energy    TOTEN  =      4153.14113223 eV

  energy without entropy =     4153.16431373  energy(sigma->0) =     4153.15272298


--------------------------------------------------------------------------------------------------------




--------------------------------------- Iteration      1(   2)  ---------------------------------------


    TRIAL :  cpu time      2.2555: real time      2.2561
    CORREC:  cpu time      0.0009: real time      0.0009
    --------------------------------------------
      LOOP:  cpu time      2.2622: real time      2.2711

 eigenvalue-minimisations  :  2304
 total energy-change (2. order) :-0.4287326E+04  (-0.4213712E+04)
 number of electron     458.0000000 magnetization 
 augmentation part      458.0000000 magnetization 

 DIPCOR: dipole corrections for dipol
 direction  3 min pos     1,
 dipolmoment           0.000000      0.000000     -0.000323 electrons x Angstroem
 Tr[quadrupol]     -6318.707789

 energy correction for charged system         0.000000 eV
 dipol+quadrupol energy correction           -0.000000 eV
 added-field ion interaction          0.002652 eV  (added to PSCEN)


 Free energy of the ion-electron system (eV)
  ---------------------------------------------------
  alpha Z        PSCENC =       907.96675598
  Ewald energy   TEWEN  =    136916.56303857
  -Hartree energ DENC   =   -173015.98453975
  -exchange      EXHF   =         0.00000000
  -V(xc)+E(xc)   XCENC  =      1789.13462966
  PAW double counting   =     32310.01086261   -36145.30683839
  entropy T*S    EENTRO =        -0.00000000
  eigenvalues    EBANDS =    -11126.45802926
  atomic energy  EATOM  =     48229.88884101
  ---------------------------------------------------
  free energy    TOTEN  =      -134.18527957 eV

  energy without entropy =     -134.18527957  energy(sigma->0) =     -134.18527957


--------------------------------------------------------------------------------------------------------




--------------------------------------- Iteration      1(   3)  ---------------------------------------


    TRIAL :  cpu time      2.3677: real time      2.3682
    CORREC:  cpu time      0.0003: real time      0.0003
    --------------------------------------------
      LOOP:  cpu time      2.3732: real time      2.3828

 eigenvalue-minimisations  :  2304
 total energy-change (2. order) :-0.3105516E+03  (-0.3084841E+03)
 number of electron     458.0000000 magnetization 
 augmentation part      458.0000000 magnetization 

 DIPCOR: dipole corrections for dipol
 direction  3 min pos     1,
 dipolmoment           0.000000      0.000000     -0.000323 electrons x Angstroem
 Tr[quadrupol]     -6318.707789

 energy correction for charged system         0.000000 eV
 dipol+quadrupol energy correction           -0.000000 eV
 added-field ion interaction          0.002652 eV  (added to PSCEN)


 Free energy of the ion-electron system (eV)
  ---------------------------------------------------
  alpha Z        PSCENC =       907.96675598
  Ewald energy   TEWEN  =    136916.56303857
  -Hartree energ DENC   =   -173015.98453975
  -exchange      EXHF   =         0.00000000
  -V(xc)+E(xc)   XCENC  =      1789.13462966
  PAW double counting   =     32310.01086261   -36145.30683839
  entropy T*S    EENTRO =        -0.00000000
  eigenvalues    EBANDS =    -11437.00961726
  atomic energy  EATOM  =     48229.88884101
  ---------------------------------------------------
  free energy    TOTEN  =      -444.73686757 eV

  energy without entropy =     -444.73686757  energy(sigma->0) =     -444.73686757


--------------------------------------------------------------------------------------------------------




--------------------------------------- Iteration      1(   4)  ---------------------------------------


    TRIAL :  cpu time      2.3672: real time      2.3676
    CORREC:  cpu time      0.0005: real time      0.0005
    --------------------------------------------
      LOOP:  cpu time      2.3820: real time      2.3825

 eigenvalue-minimisations  :  2368
 total energy-change (2. order) :-0.6021712E+01  (-0.6014585E+01)
 number of electron     458.0000000 magnetization 
 augmentation part      458.0000000 magnetization 

 DIPCOR: dipole corrections for dipol
 direction  3 min pos     1,
 dipolmoment           0.000000      0.000000     -0.000323 electrons x Angstroem
 Tr[quadrupol]     -6318.707789

 energy correction for charged system         0.000000 eV
 dipol+quadrupol energy correction           -0.000000 eV
 added-field ion interaction          0.002652 eV  (added to PSCEN)


 Free energy of the ion-electron system (eV)
  ---------------------------------------------------
  alpha Z        PSCENC =       907.96675598
  Ewald energy   TEWEN  =    136916.56303857
  -Hartree energ DENC   =   -173015.98453975
  -exchange      EXHF   =         0.00000000
  -V(xc)+E(xc)   XCENC  =      1789.13462966
  PAW double counting   =     32310.01086261   -36145.30683839
  entropy T*S    EENTRO =        -0.00000000
  eigenvalues    EBANDS =    -11443.03132876
  atomic energy  EATOM  =     48229.88884101
  ---------------------------------------------------
  free energy    TOTEN  =      -450.75857907 eV

  energy without entropy =     -450.75857907  energy(sigma->0) =     -450.75857907


--------------------------------------------------------------------------------------------------------




--------------------------------------- Iteration      1(   5)  ---------------------------------------


    TRIAL :  cpu time      2.6221: real time      2.6227
    CORREC:  cpu time      0.0005: real time      0.0005
    CHARGE:  cpu time      0.0744: real time      0.0749
    --------------------------------------------
      LOOP:  cpu time      2.7037: real time      2.7120

 eigenvalue-minimisations  :  2432
 total energy-change (2. order) :-0.7804556E-01  (-0.7804250E-01)
 number of electron     457.9999374 magnetization 
 augmentation part      159.5880623 magnetization 

 DIPCOR: dipole corrections for dipol
 direction  3 min pos     1,
 dipolmoment           0.000000      0.000000     -0.000323 electrons x Angstroem
 Tr[quadrupol]     -6318.707789

 energy correction for charged system         0.000000 eV
 dipol+quadrupol energy correction           -0.000000 eV
 added-field ion interaction          0.002652 eV  (added to PSCEN)


 Free energy of the ion-electron system (eV)
  ---------------------------------------------------
  alpha Z        PSCENC =       907.96675598
  Ewald energy   TEWEN  =    136916.56303857
  -Hartree energ DENC   =   -173015.98453975
  -exchange      EXHF   =         0.00000000
  -V(xc)+E(xc)   XCENC  =      1789.13462966
  PAW double counting   =     32310.01086261   -36145.30683839
  entropy T*S    EENTRO =        -0.00000000
  eigenvalues    EBANDS =    -11443.10937432
  atomic energy  EATOM  =     48229.88884101
  ---------------------------------------------------
  free energy    TOTEN  =      -450.83662463 eV

  energy without entropy =     -450.83662463  energy(sigma->0) =     -450.83662463


--------------------------------------------------------------------------------------------------------




--------------------------------------- Iteration      1(   6)  ---------------------------------------


    POTLOK:  cpu time      0.0347: real time      0.0348
    SETDIJ:  cpu time      0.1827: real time      0.1827
    TRIAL :  cpu time      0.6771: real time      0.6781
    CORREC:  cpu time      0.5294: real time      0.5299
    CHARGE:  cpu time      0.0551: real time      0.0551
    --------------------------------------------
      LOOP:  cpu time      1.4926: real time      1.4942

 eigenvalue-minimisations  :     0
 total energy-change (2. order) : 0.1740815E+03  (-0.9611385E+02)
 number of electron     457.9999266 magnetization 
 augmentation part      156.6864725 magnetization 

 DIPCOR: dipole corrections for dipol
 direction  3 min pos     1,
 dipolmoment           0.000000      0.000000      0.168755 electrons x Angstroem
 Tr[quadrupol]     -6355.721848

 energy correction for charged system         0.000000 eV
 dipol+quadrupol energy correction           -0.001695 eV
 added-field ion interaction         -1.386325 eV  (added to PSCEN)


 Free energy of the ion-electron system (eV)
  ---------------------------------------------------
  alpha Z        PSCENC =       904.34256444
  Ewald energy   TEWEN  =    136916.56303857
  -Hartree energ DENC   =   -176882.50822553
  -exchange      EXHF   =         0.00000000
  -V(xc)+E(xc)   XCENC  =      1914.75408449
  PAW double counting   =     36990.08230565   -40779.99211688
  entropy T*S    EENTRO =        -0.00000000
  eigenvalues    EBANDS =     -7569.88558541
  atomic energy  EATOM  =     48229.88884101
  ---------------------------------------------------
  free energy    TOTEN  =      -276.75509366 eV

  energy without entropy =     -276.75509366  energy(sigma->0) =     -276.75509366


--------------------------------------------------------------------------------------------------------




--------------------------------------- Iteration      1(   7)  ---------------------------------------


    POTLOK:  cpu time      0.0291: real time      0.0291
    SETDIJ:  cpu time      0.1867: real time      0.1867
    TRIAL :  cpu time      0.6051: real time      0.6051
    CORREC:  cpu time      0.5156: real time      0.5157
    CHARGE:  cpu time      0.0547: real time      0.0547
    --------------------------------------------
      LOOP:  cpu time      1.3962: real time      1.4058

 eigenvalue-minimisations  :     0
 total energy-change (2. order) :-0.9651630E+02  (-0.6890083E+01)
 number of electron     457.9999257 magnetization 
 augmentation part      154.8075168 magnetization 

 DIPCOR: dipole corrections for dipol
 direction  3 min pos     1,
 dipolmoment           0.000000      0.000000      0.152624 electrons x Angstroem
 Tr[quadrupol]     -6361.042226

 energy correction for charged system         0.000000 eV
 dipol+quadrupol energy correction           -0.001387 eV
 added-field ion interaction         -1.253805 eV  (added to PSCEN)


 Free energy of the ion-electron system (eV)
  ---------------------------------------------------
  alpha Z        PSCENC =       906.30268298
  Ewald energy   TEWEN  =    136916.56303857
  -Hartree energ DENC   =   -175042.29140691
  -exchange      EXHF   =         0.00000000
  -V(xc)+E(xc)   XCENC  =      1846.07856223
  PAW double counting   =     35881.43902845   -39740.39639342
  entropy T*S    EENTRO =        -0.00000000
  eigenvalues    EBANDS =     -9370.85574443
  atomic energy  EATOM  =     48229.88884101
  ---------------------------------------------------
  free energy    TOTEN  =      -373.27139150 eV

  energy without entropy =     -373.27139150  energy(sigma->0) =     -373.27139150


--------------------------------------------------------------------------------------------------------




--------------------------------------- Iteration      1(   8)  ---------------------------------------


    POTLOK:  cpu time      0.0287: real time      0.0287
    SETDIJ:  cpu time      0.1873: real time      0.1873
    TRIAL :  cpu time      0.6042: real time      0.6044
    CORREC:  cpu time      0.5165: real time      0.5165
    CHARGE:  cpu time      0.0549: real time      0.0549
    --------------------------------------------
      LOOP:  cpu time      1.4056: real time      1.4061

 eigenvalue-minimisations  :     0
 total energy-change (2. order) :-0.6905881E+01  (-0.4341710E+01)
 number of electron     457.9999239 magnetization 
 augmentation part      154.9262063 magnetization 

 DIPCOR: dipole corrections for dipol
 direction  3 min pos     1,
 dipolmoment           0.000000      0.000000      0.100038 electrons x Angstroem
 Tr[quadrupol]     -6359.270863

 energy correction for charged system         0.000000 eV
 dipol+quadrupol energy correction           -0.000596 eV
 added-field ion interaction         -0.821815 eV  (added to PSCEN)


 Free energy of the ion-electron system (eV)
  ---------------------------------------------------
  alpha Z        PSCENC =       906.85123882
  Ewald energy   TEWEN  =    136916.56303857
  -Hartree energ DENC   =   -174934.66237952
  -exchange      EXHF   =         0.00000000
  -V(xc)+E(xc)   XCENC  =      1836.28604879
  PAW double counting   =     35766.51793587   -39555.93140458
  entropy T*S    EENTRO =        -0.00000000
  eigenvalues    EBANDS =     -9545.69059101
  atomic energy  EATOM  =     48229.88884101
  ---------------------------------------------------
  free energy    TOTEN  =      -380.17727203 eV

  energy without entropy =     -380.17727203  energy(sigma->0) =     -380.17727203


--------------------------------------------------------------------------------------------------------




--------------------------------------- Iteration      1(   9)  ---------------------------------------


    POTLOK:  cpu time      0.0291: real time      0.0291
    SETDIJ:  cpu time      0.1865: real time      0.1868
    TRIAL :  cpu time      0.6046: real time      0.6046
    CORREC:  cpu time      0.5162: real time      0.5163
    CHARGE:  cpu time      0.0553: real time      0.0553
    --------------------------------------------
      LOOP:  cpu time      1.3982: real time      1.4069

 eigenvalue-minimisations  :     0
 total energy-change (2. order) :-0.4258079E+01  (-0.1731792E+01)
 number of electron     457.9999239 magnetization 
 augmentation part      154.9441940 magnetization 

 DIPCOR: dipole corrections for dipol
 direction  3 min pos     1,
 dipolmoment           0.000000      0.000000      0.134635 electrons x Angstroem
 Tr[quadrupol]     -6351.826677

 energy correction for charged system         0.000000 eV
 dipol+quadrupol energy correction           -0.001079 eV
 added-field ion interaction         -1.106031 eV  (added to PSCEN)


 Free energy of the ion-electron system (eV)
  ---------------------------------------------------
  alpha Z        PSCENC =       907.26648432
  Ewald energy   TEWEN  =    136916.56303857
  -Hartree energ DENC   =   -174798.89827488
  -exchange      EXHF   =         0.00000000
  -V(xc)+E(xc)   XCENC  =      1835.65478067
  PAW double counting   =     35683.02627698   -39508.91813213
  entropy T*S    EENTRO =        -0.00000000
  eigenvalues    EBANDS =     -9649.01836530
  atomic energy  EATOM  =     48229.88884101
  ---------------------------------------------------
  free energy    TOTEN  =      -384.43535075 eV

  energy without entropy =     -384.43535075  energy(sigma->0) =     -384.43535075


--------------------------------------------------------------------------------------------------------




--------------------------------------- Iteration      1(  10)  ---------------------------------------


    POTLOK:  cpu time      0.0287: real time      0.0287
    SETDIJ:  cpu time      0.1872: real time      0.1872
    TRIAL :  cpu time      0.6044: real time      0.6047
    CORREC:  cpu time      0.5168: real time      0.5168
    CHARGE:  cpu time      0.0553: real time      0.0553
    --------------------------------------------
      LOOP:  cpu time      1.4068: real time      1.4071

 eigenvalue-minimisations  :     0
 total energy-change (2. order) :-0.1748454E+01  (-0.5924371E+00)
 number of electron     457.9999245 magnetization 
 augmentation part      154.9057330 magnetization 

 DIPCOR: dipole corrections for dipol
 direction  3 min pos     1,
 dipolmoment           0.000000      0.000000      0.157714 electrons x Angstroem
 Tr[quadrupol]     -6350.823821

 energy correction for charged system         0.000000 eV
 dipol+quadrupol energy correction           -0.001481 eV
 added-field ion interaction         -1.295624 eV  (added to PSCEN)


 Free energy of the ion-electron system (eV)
  ---------------------------------------------------
  alpha Z        PSCENC =       906.93191539
  Ewald energy   TEWEN  =    136916.56303857
  -Hartree energ DENC   =   -174620.31352424
  -exchange      EXHF   =         0.00000000
  -V(xc)+E(xc)   XCENC  =      1833.94554025
  PAW double counting   =     35576.18723425   -39410.02100445
  entropy T*S    EENTRO =        -0.00000000
  eigenvalues    EBANDS =     -9819.36584584
  atomic energy  EATOM  =     48229.88884101
  ---------------------------------------------------
  free energy    TOTEN  =      -386.18380506 eV

  energy without entropy =     -386.18380506  energy(sigma->0) =     -386.18380506


--------------------------------------------------------------------------------------------------------




--------------------------------------- Iteration      1(  11)  ---------------------------------------


    POTLOK:  cpu time      0.0288: real time      0.0288
    SETDIJ:  cpu time      0.1869: real time      0.1869
    TRIAL :  cpu time      0.6041: real time      0.6043
    CORREC:  cpu time      0.5192: real time      0.5194
    CHARGE:  cpu time      0.0566: real time      0.0566
    --------------------------------------------
      LOOP:  cpu time      1.4013: real time      1.4105

 eigenvalue-minimisations  :     0
 total energy-change (2. order) :-0.5936381E+00  (-0.2079767E+00)
 number of electron     457.9999250 magnetization 
 augmentation part      155.0013632 magnetization 

 DIPCOR: dipole corrections for dipol
 direction  3 min pos     1,
 dipolmoment           0.000000      0.000000      0.142760 electrons x Angstroem
 Tr[quadrupol]     -6351.624187

 energy correction for charged system         0.000000 eV
 dipol+quadrupol energy correction           -0.001213 eV
 added-field ion interaction         -1.172778 eV  (added to PSCEN)


 Free energy of the ion-electron system (eV)
  ---------------------------------------------------
  alpha Z        PSCENC =       906.70244458
  Ewald energy   TEWEN  =    136916.56303857
  -Hartree energ DENC   =   -174556.24142981
  -exchange      EXHF   =         0.00000000
  -V(xc)+E(xc)   XCENC  =      1832.96702132
  PAW double counting   =     35519.19920754   -39344.96993754
  entropy T*S    EENTRO =        -0.00000000
  eigenvalues    EBANDS =     -9890.88662879
  atomic energy  EATOM  =     48229.88884101
  ---------------------------------------------------
  free energy    TOTEN  =      -386.77744311 eV

  energy without entropy =     -386.77744311  energy(sigma->0) =     -386.77744311


--------------------------------------------------------------------------------------------------------




--------------------------------------- Iteration      1(  12)  ---------------------------------------


    POTLOK:  cpu time      0.0289: real time      0.0289
    SETDIJ:  cpu time      0.1869: real time      0.1869
    TRIAL :  cpu time      0.6095: real time      0.6095
    CORREC:  cpu time      0.5183: real time      0.5185
    CHARGE:  cpu time      0.0551: real time      0.0551
    --------------------------------------------
      LOOP:  cpu time      1.4050: real time      1.4132

 eigenvalue-minimisations  :     0
 total energy-change (2. order) :-0.2079645E+00  (-0.7202049E-01)
 number of electron     457.9999251 magnetization 
 augmentation part      155.1037457 magnetization 

 DIPCOR: dipole corrections for dipol
 direction  3 min pos     1,
 dipolmoment           0.000000      0.000000      0.130556 electrons x Angstroem
 Tr[quadrupol]     -6352.304589

 energy correction for charged system         0.000000 eV
 dipol+quadrupol energy correction           -0.001015 eV
 added-field ion interaction         -1.072522 eV  (added to PSCEN)


 Free energy of the ion-electron system (eV)
  ---------------------------------------------------
  alpha Z        PSCENC =       906.78770270
  Ewald energy   TEWEN  =    136916.56303857
  -Hartree energ DENC   =   -174580.34217040
  -exchange      EXHF   =         0.00000000
  -V(xc)+E(xc)   XCENC  =      1833.24190306
  PAW double counting   =     35507.13704253   -39331.30914246
  entropy T*S    EENTRO =        -0.00000000
  eigenvalues    EBANDS =     -9868.95262258
  atomic energy  EATOM  =     48229.88884101
  ---------------------------------------------------
  free energy    TOTEN  =      -386.98540757 eV

  energy without entropy =     -386.98540757  energy(sigma->0) =     -386.98540757


--------------------------------------------------------------------------------------------------------




--------------------------------------- Iteration      1(  13)  ---------------------------------------


    POTLOK:  cpu time      0.0288: real time      0.0288
    SETDIJ:  cpu time      0.1869: real time      0.1870
    TRIAL :  cpu time      0.6090: real time      0.6092
    CORREC:  cpu time      0.5192: real time      0.5193
    CHARGE:  cpu time      0.0552: real time      0.0552
    --------------------------------------------
      LOOP:  cpu time      1.4055: real time      1.4143

 eigenvalue-minimisations  :     0
 total energy-change (2. order) :-0.7203822E-01  (-0.3172391E-01)
 number of electron     457.9999251 magnetization 
 augmentation part      155.1374353 magnetization 

 DIPCOR: dipole corrections for dipol
 direction  3 min pos     1,
 dipolmoment           0.000000      0.000000      0.125644 electrons x Angstroem
 Tr[quadrupol]     -6352.704425

 energy correction for charged system         0.000000 eV
 dipol+quadrupol energy correction           -0.000940 eV
 added-field ion interaction         -1.032166 eV  (added to PSCEN)


 Free energy of the ion-electron system (eV)
  ---------------------------------------------------
  alpha Z        PSCENC =       906.89528178
  Ewald energy   TEWEN  =    136916.56303857
  -Hartree energ DENC   =   -174609.07115256
  -exchange      EXHF   =         0.00000000
  -V(xc)+E(xc)   XCENC  =      1833.54324118
  PAW double counting   =     35506.33495314   -39333.39626639
  entropy T*S    EENTRO =        -0.00000000
  eigenvalues    EBANDS =     -9837.81538252
  atomic energy  EATOM  =     48229.88884101
  ---------------------------------------------------
  free energy    TOTEN  =      -387.05744578 eV

  energy without entropy =     -387.05744578  energy(sigma->0) =     -387.05744578


--------------------------------------------------------------------------------------------------------




--------------------------------------- Iteration      1(  14)  ---------------------------------------


    POTLOK:  cpu time      0.0305: real time      0.0305
    SETDIJ:  cpu time      0.1849: real time      0.1851
    TRIAL :  cpu time      0.6092: real time      0.6092
    CORREC:  cpu time      0.5160: real time      0.5161
    CHARGE:  cpu time      0.0558: real time      0.0558
    --------------------------------------------
      LOOP:  cpu time      1.4014: real time      1.4111

 eigenvalue-minimisations  :     0
 total energy-change (2. order) :-0.3174532E-01  (-0.1485758E-01)
 number of electron     457.9999251 magnetization 
 augmentation part      155.1229198 magnetization 

 DIPCOR: dipole corrections for dipol
 direction  3 min pos     1,
 dipolmoment           0.000000      0.000000      0.124087 electrons x Angstroem
 Tr[quadrupol]     -6353.020717

 energy correction for charged system         0.000000 eV
 dipol+quadrupol energy correction           -0.000917 eV
 added-field ion interaction         -1.019374 eV  (added to PSCEN)


 Free energy of the ion-electron system (eV)
  ---------------------------------------------------
  alpha Z        PSCENC =       906.93674337
  Ewald energy   TEWEN  =    136916.56303857
  -Hartree energ DENC   =   -174621.90579616
  -exchange      EXHF   =         0.00000000
  -V(xc)+E(xc)   XCENC  =      1833.55256958
  PAW double counting   =     35505.96223740   -39334.50921093
  entropy T*S    EENTRO =        -0.00000000
  eigenvalues    EBANDS =     -9823.57761395
  atomic energy  EATOM  =     48229.88884101
  ---------------------------------------------------
  free energy    TOTEN  =      -387.08919110 eV

  energy without entropy =     -387.08919110  energy(sigma->0) =     -387.08919110


--------------------------------------------------------------------------------------------------------




--------------------------------------- Iteration      1(  15)  ---------------------------------------


    POTLOK:  cpu time      0.0288: real time      0.0288
    SETDIJ:  cpu time      0.1878: real time      0.1878
    TRIAL :  cpu time      0.6046: real time      0.6049
    CORREC:  cpu time      0.5161: real time      0.5161
    CHARGE:  cpu time      0.0556: real time      0.0556
    --------------------------------------------
      LOOP:  cpu time      1.4069: real time      1.4074

 eigenvalue-minimisations  :     0
 total energy-change (2. order) :-0.1486765E-01  (-0.6188874E-02)
 number of electron     457.9999250 magnetization 
 augmentation part      155.1094481 magnetization 

 DIPCOR: dipole corrections for dipol
 direction  3 min pos     1,
 dipolmoment           0.000000      0.000000      0.123711 electrons x Angstroem
 Tr[quadrupol]     -6353.275424

 energy correction for charged system         0.000000 eV
 dipol+quadrupol energy correction           -0.000911 eV
 added-field ion interaction         -1.016291 eV  (added to PSCEN)


 Free energy of the ion-electron system (eV)
  ---------------------------------------------------
  alpha Z        PSCENC =       906.94493217
  Ewald energy   TEWEN  =    136916.56303857
  -Hartree energ DENC   =   -174630.68344935
  -exchange      EXHF   =         0.00000000
  -V(xc)+E(xc)   XCENC  =      1833.56803911
  PAW double counting   =     35509.19459606   -39337.00008132
  entropy T*S    EENTRO =        -0.00000000
  eigenvalues    EBANDS =     -9815.57997500
  atomic energy  EATOM  =     48229.88884101
  ---------------------------------------------------
  free energy    TOTEN  =      -387.10405875 eV

  energy without entropy =     -387.10405875  energy(sigma->0) =     -387.10405875


--------------------------------------------------------------------------------------------------------




--------------------------------------- Iteration      1(  16)  ---------------------------------------


    POTLOK:  cpu time      0.0288: real time      0.0288
    SETDIJ:  cpu time      0.1874: real time      0.1876
    TRIAL :  cpu time      0.6042: real time      0.6046
    CORREC:  cpu time      0.5165: real time      0.5167
    CHARGE:  cpu time      0.0556: real time      0.0557
    --------------------------------------------
      LOOP:  cpu time      1.3982: real time      1.4076

 eigenvalue-minimisations  :     0
[...]
    291       8.4501      0.00000
    292       8.4962      0.00000
    293       8.5149      0.00000
    294       8.5207      0.00000
    295       8.5820      0.00000
    296       8.5853      0.00000
    297       8.6042      0.00000
    298       8.6136      0.00000
    299       8.6161      0.00000
    300       8.7989      0.00000
    301       8.8541      0.00000
    302       8.9109      0.00000
    303       8.9402      0.00000
    304       9.1309      0.00000
    305       9.3403      0.00000
    306       9.3955      0.00000
    307       9.4172      0.00000
    308       9.4691      0.00000
    309       9.5528      0.00000
    310       9.5531      0.00000
    311       9.5607      0.00000
    312       9.7524      0.00000
    313       9.7900      0.00000
    314       9.8409      0.00000
    315       9.8665      0.00000
    316       9.8683      0.00000
    317      10.2427      0.00000
    318      10.2650      0.00000
    319      10.3515      0.00000
    320      10.3595      0.00000


--------------------------------------------------------------------------------------------------------


 soft charge-density along one line, spin component           1
         0         1         2         3         4         5         6         7         8         9
 total charge-density along one line

 pseudopotential strength for first ion, spin component:           1
 10.229  13.603   0.000   0.032   0.000  -0.000  -0.096  -0.000
 13.603  18.089   0.000   0.042   0.000  -0.000  -0.126  -0.000
  0.000   0.000  -4.367  -0.000  -0.000   8.556   0.000   0.000
  0.032   0.042  -0.000  -4.406   0.000   0.000   8.612   0.000
  0.000   0.000  -0.000   0.000  -4.367   0.000   0.000   8.556
 -0.000  -0.000   8.556   0.000   0.000 -18.899  -0.000  -0.000
 -0.096  -0.126   0.000   8.612   0.000  -0.000 -18.974  -0.000
 -0.000  -0.000   0.000   0.000   8.556  -0.000  -0.000 -18.899
 total augmentation occupancy for first ion, spin component:           1
  7.252  -3.279   0.000   2.031   0.000   0.000   0.371   0.000
 -3.279   1.872   0.000  -1.550   0.000   0.000  -0.225   0.000
  0.000   0.000   0.834   0.000   0.000   0.059   0.000   0.000
  2.031  -1.550   0.000   2.222  -0.000   0.000   0.209   0.000
  0.000   0.000   0.000  -0.000   0.834   0.000   0.000   0.059
  0.000   0.000   0.059   0.000   0.000   0.004   0.000   0.000
  0.371  -0.225   0.000   0.209   0.000   0.000   0.029   0.000
  0.000   0.000   0.000   0.000   0.059   0.000   0.000   0.004


------------------------ aborting loop because EDIFF is reached ----------------------------------------


    FORLOC:  cpu time      0.0038: real time      0.0038
    FORNL :  cpu time      0.4248: real time      0.4250
    STRESS:  cpu time      1.3402: real time      1.3407
    FORCOR:  cpu time      0.0271: real time      0.0272
    OFIELD:  cpu time      0.0001: real time      0.0001

  DFT-D2 method for vdW energy calculation
  -------------------------------------------------------------------

  Parameters of vdW forcefield:
         C6(Jnm^6/mol)     R0(A)
   -----------------------------
   C        1.750          1.452
   O        0.700          1.342
   Mg       0.630          1.243
   O        0.700          1.342

  vdW correction parametrized for the method pbe       

  IVDW =   1
  VDW_RADIUS =    50.000 A
  VDW_S6 =     0.750
  VDW_SR =     1.000
  VDW_D =    20.000
  LVDW_EWALD = F

  Number of pair interactions contributing to vdW energy:  768258
  Edisp (eV):   -3.68984
    FORVDW:  cpu time      0.1852: real time      0.1852

  FORCE on cell =-STRESS in cart. coord.  units (eV):
  Direction    XX          YY          ZZ          XY          YZ          ZX
  --------------------------------------------------------------------------------------
  Alpha Z   907.96410   907.96410   907.96410
  Ewald  157418.67873157418.67873************     0.00000     0.00000    -0.00000
  Hartree167828.33079167828.33079************    -0.00000    -0.00000    -0.00000
  E(xc)   -2500.74672 -2500.74672 -2504.67663     0.00000    -0.00000     0.00000
  Local  ************************334838.05992    -0.00000     0.00000    -0.00000
  n-local -2830.36146 -2831.18399 -2862.02880    -0.00001    -0.00000     0.00000
  augment  1054.02063  1054.02063  1044.17423    -0.00000     0.00000     0.00000
  Kinetic  7493.72028  7496.33789  7517.83646     0.00001     0.00001    -0.00001
  Fock        0.00000     0.00000     0.00000     0.00000     0.00000     0.00000
  vdW        -5.37075    -5.37075    -4.43223    -0.00000     0.00000    -0.00000
  -------------------------------------------------------------------------------------
  Total     -24.17517   -24.17517    -0.93211     0.00000     0.00000    -0.00000
  in kB     -25.48519   -25.48519    -0.98262     0.00000     0.00000    -0.00000
  external pressure =      -17.32 kB  Pullay stress =        0.00 kB


 VOLUME and BASIS-vectors are now :
 -----------------------------------------------------------------------------
  energy-cutoff  :      600.00
  volume of cell :     1519.82
      direct lattice vectors                 reciprocal lattice vectors
     8.440984654  0.000000000  0.000000000     0.118469591  0.000000000  0.000000000
     0.000000000  8.440984654  0.000000000     0.000000000  0.118469591  0.000000000
     0.000000000  0.000000000 21.330738491     0.000000000  0.000000000  0.046880702

  length of vectors
     8.440984654  8.440984654 21.330738491     0.118469591  0.118469591  0.046880702


 FORCES acting on ions:
    Electron-Ion                     Ewald-Force                    Non-Local-Force
 -----------------------------------------------------------------------------------------------
   0.797E-13 -.498E-12 -.815E+03   -.167E-13 0.000E+00 0.789E+03   0.000E+00 0.000E+00 0.269E+02
   0.425E-12 -.128E-11 -.142E+04   -.289E-14 0.311E-14 0.147E+04   0.000E+00 -.662E-23 -.598E+02
   -.717E-14 -.119E+00 0.208E+04   0.560E-13 0.119E+00 -.207E+04   -.132E-22 -.245E-03 -.704E+01
   0.119E+00 0.194E-12 0.208E+04   -.119E+00 0.671E-13 -.207E+04   0.245E-03 -.265E-22 -.704E+01
   -.355E-13 0.875E-13 0.712E+03   -.150E-10 0.150E-10 -.713E+03   0.000E+00 0.000E+00 0.501E+00
   0.408E+00 -.408E+00 0.713E+03   -.404E+00 0.404E+00 -.714E+03   -.250E-02 0.250E-02 0.527E+00
   -.665E-13 -.265E+01 -.643E+03   0.157E-11 0.264E+01 0.643E+03   0.000E+00 0.144E-01 -.161E+00
   0.265E+01 -.572E-13 -.643E+03   -.264E+01 -.151E-11 0.643E+03   -.144E-01 -.529E-22 -.161E+00
   -.349E-13 -.120E-11 -.200E+04   0.444E-12 -.416E-12 0.200E+04   -.265E-22 0.529E-22 0.597E+01
   0.168E+02 -.168E+02 -.198E+04   -.169E+02 0.169E+02 0.198E+04   0.869E-01 -.869E-01 0.605E+01
   0.139E-14 0.119E+00 0.208E+04   -.277E-12 -.119E+00 -.207E+04   0.000E+00 0.245E-03 -.704E+01
   0.112E+00 0.943E-12 0.208E+04   -.109E+00 0.131E-10 -.207E+04   -.175E-02 0.662E-23 -.704E+01
   -.451E-13 0.104E-11 0.713E+03   -.165E-10 0.000E+00 -.714E+03   0.116E-22 0.000E+00 0.465E+00
   0.408E+00 0.408E+00 0.713E+03   -.404E+00 -.404E+00 -.714E+03   -.250E-02 -.250E-02 0.527E+00
   -.725E-13 0.265E+01 -.643E+03   0.304E-11 -.264E+01 0.643E+03   0.132E-22 -.144E-01 -.161E+00
   0.367E+01 0.130E-11 -.637E+03   -.360E+01 0.178E-14 0.637E+03   -.762E-01 0.000E+00 -.266E+00
   -.227E-13 -.630E-12 -.199E+04   -.355E-13 -.995E-13 0.198E+04   0.000E+00 0.000E+00 0.597E+01
   0.168E+02 0.168E+02 -.198E+04   -.169E+02 -.169E+02 0.198E+04   0.869E-01 0.869E-01 0.605E+01
   0.899E-12 -.112E+00 0.208E+04   -.129E-10 0.109E+00 -.207E+04   0.662E-23 0.175E-02 -.704E+01
   -.119E+00 0.152E-12 0.208E+04   0.119E+00 0.471E-13 -.207E+04   -.245E-03 0.517E-23 -.704E+01
   0.842E-12 -.107E-11 0.713E+03   0.145E-11 0.150E-10 -.714E+03   0.000E+00 0.000E+00 0.465E+00
   -.408E+00 -.408E+00 0.713E+03   0.404E+00 0.404E+00 -.714E+03   0.250E-02 0.250E-02 0.527E+00
   0.818E-12 -.367E+01 -.637E+03   -.141E-11 0.360E+01 0.637E+03   0.463E-22 0.762E-01 -.266E+00
   -.265E+01 -.236E-13 -.643E+03   0.264E+01 -.156E-11 0.643E+03   0.144E-01 0.265E-22 -.161E+00
   0.873E-12 -.997E-12 -.199E+04   0.782E-13 -.355E-14 0.198E+04   0.265E-22 0.000E+00 0.597E+01
   -.168E+02 -.168E+02 -.198E+04   0.169E+02 0.169E+02 0.198E+04   -.869E-01 -.869E-01 0.605E+01
   0.908E-12 0.112E+00 0.208E+04   -.131E-10 -.109E+00 -.207E+04   0.662E-23 -.175E-02 -.704E+01
   -.112E+00 0.411E-12 0.208E+04   0.109E+00 0.131E-10 -.207E+04   0.175E-02 0.000E+00 -.704E+01
   0.896E-12 0.210E-11 0.713E+03   -.782E-13 0.355E-14 -.714E+03   0.529E-22 0.000E+00 0.600E+00
   -.408E+00 0.408E+00 0.713E+03   0.404E+00 -.404E+00 -.714E+03   0.250E-02 -.250E-02 0.527E+00
   0.810E-12 0.367E+01 -.637E+03   -.284E-13 -.360E+01 0.637E+03   -.265E-22 -.762E-01 -.266E+00
   -.367E+01 -.152E-11 -.637E+03   0.360E+01 0.000E+00 0.637E+03   0.762E-01 0.000E+00 -.266E+00
   0.898E-12 0.882E-12 -.192E+04   -.426E-13 -.391E-13 0.192E+04   0.000E+00 0.000E+00 0.437E+01
   -.168E+02 0.168E+02 -.198E+04   0.169E+02 -.169E+02 0.198E+04   -.869E-01 0.869E-01 0.605E+01
   -.606E-13 -.367E+00 0.534E+03   0.409E-13 0.362E+00 -.534E+03   0.265E-22 0.669E-02 -.909E-01
   0.367E+00 -.303E-13 0.534E+03   -.362E+00 0.391E-13 -.534E+03   -.669E-02 -.662E-22 -.909E-01
   -.818E-13 -.263E-12 0.156E+04   0.853E-11 -.844E-11 -.156E+04   0.000E+00 0.000E+00 0.349E+01
   0.858E-01 -.858E-01 0.156E+04   -.850E-01 0.850E-01 -.156E+04   -.101E-02 0.101E-02 0.349E+01
   -.474E-13 -.697E+01 -.152E+04   -.871E-12 0.691E+01 0.153E+04   0.265E-22 0.540E-01 -.503E+01
   0.697E+01 -.539E-13 -.152E+04   -.691E+01 0.881E-12 0.153E+04   -.540E-01 0.000E+00 -.503E+01
   -.590E-13 -.337E-12 -.479E+03   -.853E-13 0.639E-13 0.478E+03   0.000E+00 -.372E-23 0.256E+00
   0.234E+01 -.234E+01 -.474E+03   -.233E+01 0.233E+01 0.474E+03   -.587E-02 0.587E-02 0.325E+00
   -.815E-13 0.367E+00 0.534E+03   0.142E-13 -.362E+00 -.534E+03   -.132E-22 -.669E-02 -.909E-01
   0.321E+00 0.508E-12 0.535E+03   -.347E+00 -.764E-11 -.535E+03   0.355E-01 0.000E+00 -.111E+00
   -.753E-13 0.283E-12 0.156E+04   0.845E-11 -.796E-12 -.156E+04   0.000E+00 0.000E+00 0.349E+01
   0.858E-01 0.858E-01 0.156E+04   -.850E-01 -.850E-01 -.156E+04   -.101E-02 -.101E-02 0.349E+01
   -.488E-13 0.697E+01 -.152E+04   -.774E-12 -.691E+01 0.153E+04   0.000E+00 -.540E-01 -.503E+01
   0.214E+02 0.963E-12 -.149E+04   -.211E+02 0.810E-11 0.150E+04   -.279E+00 -.529E-22 -.501E+01
   -.843E-13 0.103E-12 -.474E+03   -.741E-11 0.711E-14 0.474E+03   0.132E-22 0.000E+00 0.281E+00
   0.234E+01 0.234E+01 -.474E+03   -.233E+01 -.233E+01 0.474E+03   -.587E-02 -.587E-02 0.325E+00
   0.317E-12 -.321E+00 0.535E+03   0.764E-11 0.347E+00 -.535E+03   0.000E+00 -.355E-01 -.111E+00
   -.367E+00 0.168E-13 0.534E+03   0.362E+00 0.142E-13 -.534E+03   0.669E-02 -.662E-23 -.909E-01
   0.341E-12 -.303E-12 0.156E+04   0.845E-12 -.846E-11 -.156E+04   0.132E-22 0.529E-22 0.349E+01
   -.858E-01 -.858E-01 0.156E+04   0.850E-01 0.850E-01 -.156E+04   0.101E-02 0.101E-02 0.349E+01
   0.373E-12 -.214E+02 -.149E+04   -.816E-11 0.211E+02 0.150E+04   -.397E-22 0.279E+00 -.501E+01
   -.697E+01 -.269E-13 -.152E+04   0.691E+01 0.924E-12 0.153E+04   0.540E-01 0.000E+00 -.503E+01
   0.323E-12 -.569E-12 -.474E+03   -.711E-14 0.738E-11 0.474E+03   0.132E-22 0.000E+00 0.281E+00
   -.234E+01 -.234E+01 -.474E+03   0.233E+01 0.233E+01 0.474E+03   0.587E-02 0.587E-02 0.325E+00
   0.336E-12 0.321E+00 0.535E+03   0.763E-11 -.347E+00 -.535E+03   0.827E-24 0.355E-01 -.111E+00
   -.321E+00 0.142E-11 0.535E+03   0.347E+00 -.769E-11 -.535E+03   -.355E-01 -.662E-23 -.111E+00
   0.338E-12 0.673E-12 0.156E+04   0.824E-12 -.838E-12 -.156E+04   0.000E+00 0.000E+00 0.348E+01
   -.858E-01 0.858E-01 0.156E+04   0.850E-01 -.850E-01 -.156E+04   0.101E-02 -.101E-02 0.349E+01
   0.375E-12 0.214E+02 -.149E+04   -.820E-11 -.211E+02 0.150E+04   0.000E+00 -.279E+00 -.501E+01
   -.214E+02 -.166E-11 -.149E+04   0.211E+02 0.819E-11 0.150E+04   0.279E+00 0.000E+00 -.501E+01
   0.317E-12 0.149E-11 -.474E+03   -.497E-13 0.426E-13 0.475E+03   -.248E-23 0.000E+00 -.191E+00
   -.234E+01 0.234E+01 -.474E+03   0.233E+01 -.233E+01 0.474E+03   0.587E-02 -.587E-02 0.325E+00
 -----------------------------------------------------------------------------------------------
   0.260E-10 0.693E-11 0.515E+02   0.613E-13 -.662E-13 -.341E-12   0.147E-16 -.416E-16 -.515E+02


 POSITION                                       TOTAL-FORCE (eV/Angst)
 -----------------------------------------------------------------------------------
      4.22049      4.22049     16.41814         0.000000     -0.000000      0.286257
      4.22049      4.22049     17.56496         0.000000     -0.000000     -0.408430
      0.00000      6.33074      7.50000         0.000000      0.000046      0.350186
      2.11025      0.00000      7.50000        -0.000046     -0.000000      0.350186
      0.00000      0.00000      9.61025         0.000000     -0.000000      0.031183
      2.11025      6.33074      9.61025         0.001487     -0.001487      0.033024
      0.00000      6.33023     11.73368         0.000000      0.000426      0.035342
      2.11076      0.00000     11.73368        -0.000426     -0.000000      0.035342
      0.00000      0.00000     13.83822         0.000000     -0.000000     -0.014364
      2.10905      6.33193     13.83447        -0.005445      0.005445     -0.014648
      0.00000      2.11025      7.50000         0.000000     -0.000046      0.350186
      2.11025      4.22049      7.50000         0.000572     -0.000000      0.350247
      0.00000      4.22049      9.61025         0.000000     -0.000000      0.039658
      2.11025      2.11025      9.61025         0.001487      0.001487      0.033024
      0.00000      2.11076     11.73368         0.000000     -0.000426      0.035342
      2.11344      4.22049     11.73659        -0.005188     -0.000000      0.037872
      0.00000      4.22049     13.83544         0.000000     -0.000000     -0.016402
      2.10905      2.10905     13.83447        -0.005445     -0.005445     -0.014648
      4.22049      6.33074      7.50000         0.000000     -0.000572      0.350247
      6.33074      0.00000      7.50000         0.000046     -0.000000      0.350186
      4.22049      0.00000      9.61025         0.000000     -0.000000      0.039658
      6.33074      6.33074      9.61025        -0.001487     -0.001487      0.033024
      4.22049      6.32754     11.73659         0.000000      0.005188      0.037872
      6.33023      0.00000     11.73368         0.000426     -0.000000      0.035342
      4.22049      0.00000     13.83544         0.000000     -0.000000     -0.016402
      6.33193      6.33193     13.83447         0.005445      0.005445     -0.014648
      4.22049      2.11025      7.50000         0.000000      0.000572      0.350247
      6.33074      4.22049      7.50000        -0.000572     -0.000000      0.350247
      4.22049      4.22049      9.61025         0.000000     -0.000000      0.045174
      6.33074      2.11025      9.61025        -0.001487      0.001487      0.033024
      4.22049      2.11344     11.73659         0.000000     -0.005188      0.037872
      6.32754      4.22049     11.73659         0.005188     -0.000000      0.037872
      4.22049      4.22049     13.87814         0.000000     -0.000000      0.131038
      6.33193      2.10905     13.83447         0.005445     -0.005445     -0.014648
      0.00000      6.33074      9.61025         0.000000      0.001988      0.064530
      2.11025      0.00000      9.61025        -0.001988     -0.000000      0.064530
      0.00000      0.00000      7.50000         0.000000     -0.000000     -0.516676
      2.11025      6.33074      7.50000        -0.000285      0.000285     -0.516406
      0.00000      6.33258     13.88587         0.000000     -0.002289      0.018647
      2.10840      0.00000     13.88587         0.002289     -0.000000      0.018647
      0.00000      0.00000     11.72785         0.000000     -0.000000      0.018272
      2.10979      6.33120     11.72890         0.003479     -0.003479      0.012204
      0.00000      2.11025      9.61025         0.000000     -0.001988      0.064530
      2.11025      4.22049      9.61025         0.009268     -0.000000      0.073470
      0.00000      4.22049      7.50000         0.000000     -0.000000     -0.516513
      2.11025      2.11025      7.50000        -0.000285     -0.000285     -0.516406
      0.00000      2.10840     13.88587         0.000000      0.002289      0.018647
      2.10031      4.22049     13.88381         0.013270     -0.000000      0.027390
      0.00000      4.22049     11.72684         0.000000     -0.000000      0.016621
      2.10979      2.10979     11.72890         0.003479      0.003479      0.012204
      4.22049      6.33074      9.61025         0.000000     -0.009268      0.073470
      6.33074      0.00000      9.61025         0.001988     -0.000000      0.064530
      4.22049      0.00000      7.50000         0.000000     -0.000000     -0.516513
      6.33074      6.33074      7.50000         0.000285      0.000285     -0.516406
      4.22049      6.34068     13.88381         0.000000     -0.013270      0.027390
      6.33258      0.00000     13.88587        -0.002289     -0.000000      0.018647
      4.22049      0.00000     11.72684         0.000000     -0.000000      0.016621
      6.33120      6.33120     11.72890        -0.003479     -0.003479      0.012204
      4.22049      2.11025      9.61025         0.000000      0.009268      0.073470
      6.33074      4.22049      9.61025        -0.009268     -0.000000      0.073470
      4.22049      4.22049      7.50000         0.000000     -0.000000     -0.517101
      6.33074      2.11025      7.50000         0.000285     -0.000285     -0.516406
      4.22049      2.10031     13.88381         0.000000      0.013270      0.027390
      6.34068      4.22049     13.88381        -0.013270     -0.000000      0.027390
      4.22049      4.22049     11.73684         0.000000     -0.000000      0.010489
      6.33120      2.10979     11.72890        -0.003479      0.003479      0.012204
 -----------------------------------------------------------------------------------
    total drift:                                0.000000      0.000000     -0.025807


--------------------------------------------------------------------------------------------------------



  FREE ENERGIE OF THE ION-ELECTRON SYSTEM (eV)
  ---------------------------------------------------
  free  energy   TOTEN  =      -390.80388532 eV

  energy  without entropy=     -390.80388532  energy(sigma->0) =     -390.80388532



--------------------------------------------------------------------------------------------------------


    POTLOK:  cpu time      0.2208: real time      0.2208


--------------------------------------------------------------------------------------------------------


     LOOP+:  cpu time     47.4467: real time     47.8184
    4ORBIT:  cpu time      0.0000: real time      0.0000

 total amount of memory used by VASP MPI-rank0    78528. kBytes
=======================================================================

   base      :      30000. kBytes
   nonl-proj :      29343. kBytes
   fftplans  :       3857. kBytes
   grid      :       5885. kBytes
   one-center:        137. kBytes
   wavefun   :       9306. kBytes

  
  
 General timing and accounting informations for this job:
 ========================================================
  
                  Total CPU time used (sec):       65.914
                            User time (sec):       63.519
                          System time (sec):        2.395
                         Elapsed time (sec):       70.496
  
                   Maximum memory used (kb):      176788.
                   Average memory used (kb):          N/A
  
                          Minor page faults:        31688
                          Major page faults:           52
                 Voluntary context switches:         7093
