 **********************************************************************
                          MRCC program system
 **********************************************************************
 
                              Written by
     Mihaly Kallay, Peter R. Nagy, David Mester, Laszlo Gyevi-Nagy,
        Jozsef Csoka, P. Bernat Szabo, Zoltan Rolik, Gyula Samu,
     Jozsef Csontos, Bence Hegely, Adam Ganyecz, Istvan Ladjanszki,
       Lorant Szegedy, Bence Ladoczki, Klara Petrov, Mate Farkas,
                    Pal D. Mezei, and Reka A. Horvath
 
        Department of Physical Chemistry and Materials Science
            Budapest University of Technology and Economics
                  Budapest P.O.Box 91, H-1521 Hungary
 
                              www.mrcc.hu
 
                      Release date: March 18, 2022

 ************************ 2023-06-13 13:30:03 *************************
 Executing minp...

 Reading input from MINP...
 
 Input file:
 
calc=LNO-CCSD(T)
scftype=rhf
verbosity=3
mem=200GB
symm=off
unit=angs
scfiguess=small
scfmaxit=1000
scfalg=locfit1


lcorthr=vtight
bpedo=0.99999
ccmaxit=400
usedisk=0
ccsdalg=dfdirect
ccsdthreads=4
ccsdmkl=thr
ptthreads=4

charge=-24
core=22

basis=special
aug-cc-pVDZ
aug-cc-pVDZ
bse_CVDZ
aug-cc-pVDZ
aug-cc-pVDZ
aug-cc-pVDZ
aug-cc-pVDZ
aug-cc-pVDZ
bse_CVDZ
bse_CVDZ
bse_CVDZ
bse_CVDZ
aug-cc-pVDZ
aug-cc-pVDZ
aug-cc-pVDZ
aug-cc-pVDZ
aug-cc-pVDZ
aug-cc-pVDZ
aug-cc-pVDZ
aug-cc-pVDZ
aug-cc-pVDZ
aug-cc-pVDZ
aug-cc-pVDZ
aug-cc-pVDZ
nothing
nothing
nothing
nothing
nothing
nothing
nothing
nothing
nothing
nothing
nothing
nothing
nothing
nothing
nothing
nothing
nothing
nothing
nothing
nothing
nothing
nothing
nothing
nothing
nothing
nothing
nothing
nothing
nothing
nothing
nothing
nothing
nothing
nothing
nothing
nothing
nothing
nothing
nothing
nothing
nothing
nothing
nothing
nothing
nothing
nothing
nothing
nothing
nothing
nothing
nothing
nothing
nothing

basis_sm=special
def2-SVP
def2-SVP
def2-SVP
def2-SVP
def2-SVP
def2-SVP
def2-SVP
def2-SVP
def2-SVP
def2-SVP
def2-SVP
def2-SVP
def2-SVP
def2-SVP
def2-SVP
def2-SVP
def2-SVP
def2-SVP
def2-SVP
def2-SVP
def2-SVP
def2-SVP
def2-SVP
def2-SVP
nothing
nothing
nothing
nothing
nothing
nothing
nothing
nothing
nothing
nothing
nothing
nothing
nothing
nothing
nothing
nothing
nothing
nothing
nothing
nothing
nothing
nothing
nothing
nothing
nothing
nothing
nothing
nothing
nothing
nothing
nothing
nothing
nothing
nothing
nothing
nothing
nothing
nothing
nothing
nothing
nothing
nothing
nothing
nothing
nothing
nothing
nothing
nothing
nothing
nothing
nothing
nothing
nothing

dfbasis_scf=special
def2-QZVPP-RI-JK
def2-QZVPP-RI-JK
def2-QZVPP-RI-JK
def2-QZVPP-RI-JK
def2-QZVPP-RI-JK
def2-QZVPP-RI-JK
def2-QZVPP-RI-JK
def2-QZVPP-RI-JK
def2-QZVPP-RI-JK
def2-QZVPP-RI-JK
def2-QZVPP-RI-JK
def2-QZVPP-RI-JK
def2-QZVPP-RI-JK
def2-QZVPP-RI-JK
def2-QZVPP-RI-JK
def2-QZVPP-RI-JK
def2-QZVPP-RI-JK
def2-QZVPP-RI-JK
def2-QZVPP-RI-JK
def2-QZVPP-RI-JK
def2-QZVPP-RI-JK
def2-QZVPP-RI-JK
def2-QZVPP-RI-JK
def2-QZVPP-RI-JK
nothing
nothing
nothing
nothing
nothing
nothing
nothing
nothing
nothing
nothing
nothing
nothing
nothing
nothing
nothing
nothing
nothing
nothing
nothing
nothing
nothing
nothing
nothing
nothing
nothing
nothing
nothing
nothing
nothing
nothing
nothing
nothing
nothing
nothing
nothing
nothing
nothing
nothing
nothing
nothing
nothing
nothing
nothing
nothing
nothing
nothing
nothing
nothing
nothing
nothing
nothing
nothing
nothing

dfbasis_cor=special
aug-cc-pVDZ-RI
aug-cc-pVDZ-RI
bse_CVDZ_mp2fit
aug-cc-pVDZ-RI
aug-cc-pVDZ-RI
aug-cc-pVDZ-RI
aug-cc-pVDZ-RI
aug-cc-pVDZ-RI
bse_CVDZ_mp2fit
bse_CVDZ_mp2fit
bse_CVDZ_mp2fit
bse_CVDZ_mp2fit
aug-cc-pVDZ-RI
aug-cc-pVDZ-RI
aug-cc-pVDZ-RI
aug-cc-pVDZ-RI
aug-cc-pVDZ-RI
aug-cc-pVDZ-RI
aug-cc-pVDZ-RI
aug-cc-pVDZ-RI
aug-cc-pVDZ-RI
aug-cc-pVDZ-RI
aug-cc-pVDZ-RI
aug-cc-pVDZ-RI
nothing
nothing
nothing
nothing
nothing
nothing
nothing
nothing
nothing
nothing
nothing
nothing
nothing
nothing
nothing
nothing
nothing
nothing
nothing
nothing
nothing
nothing
nothing
nothing
nothing
nothing
nothing
nothing
nothing
nothing
nothing
nothing
nothing
nothing
nothing
nothing
nothing
nothing
nothing
nothing
nothing
nothing
nothing
nothing
nothing
nothing
nothing
nothing
nothing
nothing
nothing
nothing
nothing

ecp=special
none
none
none
none
none
none
none
none
none
none
none
none
none
none
none
none
none
none
none
none
none
none
none
none
ECP-12
ECP-12
ECP-12
ECP-12
ECP-12
ECP-12
ECP-12
ECP-12
ECP-12
ECP-12
ECP-12
ECP-12
ECP-12
ECP-12
ECP-12
ECP-12
ECP-12
ECP-12
ECP-12
ECP-12
ECP-12
ECP-12
ECP-12
ECP-12
ECP-12
ECP-12
ECP-12
ECP-12
ECP-12
ECP-12
ECP-12
ECP-12
ECP-12
ECP-12
ECP-12
ECP-12
ECP-12
ECP-12
ECP-12
ECP-12
ECP-12
ECP-12
ECP-12
ECP-12
ECP-12
ECP-12
ECP-12
ECP-12
ECP-12
ECP-12
ECP-12
ECP-12
ECP-12

unit=angs
geom=xyz
77
C1 O1 Mg5 O17 ECP53
C     0.00000000000    0.00000000000    2.43329433571
O     0.00000000000    0.00000000000    3.58011415037
Mg    0.00000000000    0.00000000000   -0.00772802266
O    -2.12018425659    0.00000000000   -0.00205593177
O     0.00000000000    2.12018425659   -0.00205593177
O     2.12018425659    0.00000000000   -0.00205593177
O     0.00000000000   -2.12018425659   -0.00205593177
O     0.00000000000    0.00000000000   -2.14902768389
Mg   -2.11144262254    2.11144262254   -0.05140086690
Mg    2.11144262254    2.11144262254   -0.05140086690
Mg    2.11144262254   -2.11144262254   -0.05140086690
Mg   -2.11144262254   -2.11144262254   -0.05140086690
O    -2.11070451449    2.11070451449   -2.15696791928
O     2.11070451449    2.11070451449   -2.15696791928
O     2.11070451449   -2.11070451449   -2.15696791928
O    -2.11070451449   -2.11070451449   -2.15696791928
O    -4.22049352791    2.11209139723    0.00000000000
O    -2.11209139723    4.22049352791    0.00000000000
O     2.11209139723    4.22049352791    0.00000000000
O     4.22049352791    2.11209139723    0.00000000000
O     4.22049352791   -2.11209139723    0.00000000000
O     2.11209139723   -4.22049352791    0.00000000000
O    -2.11209139723   -4.22049352791    0.00000000000
O    -4.22049352791   -2.11209139723    0.00000000000
Mg   -2.10705287155    0.00000000000   -2.14928009216
Mg    0.00000000000    2.10705287155   -2.14928009216
Mg    2.10705287155    0.00000000000   -2.14928009216
Mg    0.00000000000   -2.10705287155   -2.14928009216
Mg   -4.22049352791    0.00000000000   -0.05042534122
Mg    0.00000000000    4.22049352791   -0.05042534122
Mg    4.22049352791    0.00000000000   -0.05042534122
Mg    0.00000000000   -4.22049352791   -0.05042534122
Mg    0.00000000000    0.00000000000   -4.27562330794
Mg   -4.22049352791    2.10973412517   -2.15218714568
Mg   -2.10973412517    4.22049352791   -2.15218714568
Mg    2.10973412517    4.22049352791   -2.15218714568
Mg    4.22049352791    2.10973412517   -2.15218714568
Mg    4.22049352791   -2.10973412517   -2.15218714568
Mg    2.10973412517   -4.22049352791   -2.15218714568
Mg   -2.10973412517   -4.22049352791   -2.15218714568
Mg   -4.22049352791   -2.10973412517   -2.15218714568
Mg   -2.11024676395    2.11024676395   -4.27562330794
Mg    2.11024676395    2.11024676395   -4.27562330794
Mg    2.11024676395   -2.11024676395   -4.27562330794
Mg   -2.11024676395   -2.11024676395   -4.27562330794
Mg   -4.22049352791    4.22049352791   -0.04765173215
Mg    4.22049352791    4.22049352791   -0.04765173215
Mg    4.22049352791   -4.22049352791   -0.04765173215
Mg   -4.22049352791   -4.22049352791   -0.04765173215
Mg   -4.22049352791    0.00000000000   -4.27562330794
Mg    0.00000000000    4.22049352791   -4.27562330794
Mg    4.22049352791    0.00000000000   -4.27562330794
Mg    0.00000000000   -4.22049352791   -4.27562330794
Mg   -6.32954443328    2.11144262254   -0.05140086690
Mg   -2.11144262254    6.32954443328   -0.05140086690
Mg    2.11144262254    6.32954443328   -0.05140086690
Mg    6.32954443328    2.11144262254   -0.05140086690
Mg    6.32954443328   -2.11144262254   -0.05140086690
Mg    2.11144262254   -6.32954443328   -0.05140086690
Mg   -2.11144262254   -6.32954443328   -0.05140086690
Mg   -6.32954443328   -2.11144262254   -0.05140086690
Mg   -6.33393418427    0.00000000000   -2.14928009216
Mg    0.00000000000    6.33393418427   -2.14928009216
Mg    6.33393418427    0.00000000000   -2.14928009216
Mg    0.00000000000   -6.33393418427   -2.14928009216
Mg   -4.22049352791    4.22049352791   -4.27562330794
Mg    4.22049352791    4.22049352791   -4.27562330794
Mg    4.22049352791   -4.22049352791   -4.27562330794
Mg   -4.22049352791   -4.22049352791   -4.27562330794
Mg   -6.33125293065    4.22049352791   -2.15218714568
Mg   -4.22049352791    6.33125293065   -2.15218714568
Mg    4.22049352791    6.33125293065   -2.15218714568
Mg    6.33125293065    4.22049352791   -2.15218714568
Mg    6.33125293065   -4.22049352791   -2.15218714568
Mg    4.22049352791   -6.33125293065   -2.15218714568
Mg   -4.22049352791   -6.33125293065   -2.15218714568
Mg   -6.33125293065   -4.22049352791   -2.15218714568


ghost=serialno
1-2

qmmm=Amber
pointcharges
10169
     -2.10705287155    0.00000000000   -2.14928009216    2.00000000000
      0.00000000000    2.10705287155   -2.14928009216    2.00000000000
      2.10705287155    0.00000000000   -2.14928009216    2.00000000000
      0.00000000000   -2.10705287155   -2.14928009216    2.00000000000
     -4.22049352791    0.00000000000   -0.05042534122    2.00000000000
      0.00000000000    4.22049352791   -0.05042534122    2.00000000000
      4.22049352791    0.00000000000   -0.05042534122    2.00000000000
      0.00000000000   -4.22049352791   -0.05042534122    2.00000000000
      0.00000000000    0.00000000000   -4.27562330794    2.00000000000
     -4.22049352791    0.00000000000   -2.15902521756   -2.00000000000
      0.00000000000    4.22049352791   -2.15902521756   -2.00000000000
      4.22049352791    0.00000000000   -2.15902521756   -2.00000000000
      0.00000000000   -4.22049352791   -2.15902521756   -2.00000000000
     -2.11024676395    0.00000000000   -4.27562330794   -2.00000000000
      0.00000000000    2.11024676395   -4.27562330794   -2.00000000000
      2.11024676395    0.00000000000   -4.27562330794   -2.00000000000
      0.00000000000   -2.11024676395   -4.27562330794   -2.00000000000
     -4.22049352791    2.10973412517   -2.15218714568    2.00000000000
     -2.10973412517    4.22049352791   -2.15218714568    2.00000000000
      2.10973412517    4.22049352791   -2.15218714568    2.00000000000
      4.22049352791    2.10973412517   -2.15218714568    2.00000000000
      4.22049352791   -2.10973412517   -2.15218714568    2.00000000000
      2.10973412517   -4.22049352791   -2.15218714568    2.00000000000
     -2.10973412517   -4.22049352791   -2.15218714568    2.00000000000
     -4.22049352791   -2.10973412517   -2.15218714568    2.00000000000
     -2.11024676395    2.11024676395   -4.27562330794    2.00000000000
      2.11024676395    2.11024676395   -4.27562330794    2.00000000000
      2.11024676395   -2.11024676395   -4.27562330794    2.00000000000
     -2.11024676395   -2.11024676395   -4.27562330794    2.00000000000
     -4.22049352791    4.22049352791   -0.04765173215    2.00000000000
      4.22049352791    4.22049352791   -0.04765173215    2.00000000000
      4.22049352791   -4.22049352791   -0.04765173215    2.00000000000
     -4.22049352791   -4.22049352791   -0.04765173215    2.00000000000
     -4.22049352791    0.00000000000   -4.27562330794    2.00000000000
      0.00000000000    4.22049352791   -4.27562330794    2.00000000000
      4.22049352791    0.00000000000   -4.27562330794    2.00000000000
      0.00000000000   -4.22049352791   -4.27562330794    2.00000000000
     -6.32080279923    0.00000000000   -0.00205593177   -2.00000000000
      0.00000000000    6.32080279923   -0.00205593177   -2.00000000000
      6.32080279923    0.00000000000   -0.00205593177   -2.00000000000
      0.00000000000   -6.32080279923   -0.00205593177   -2.00000000000
     -4.22049352791    4.22049352791   -2.15801787533   -2.00000000000
      4.22049352791    4.22049352791   -2.15801787533   -2.00000000000
      4.22049352791   -4.22049352791   -2.15801787533   -2.00000000000
     -4.22049352791   -4.22049352791   -2.15801787533   -2.00000000000
     -4.22049352791    2.11024676395   -4.27562330794   -2.00000000000
     -2.11024676395    4.22049352791   -4.27562330794   -2.00000000000
      2.11024676395    4.22049352791   -4.27562330794   -2.00000000000
      4.22049352791    2.11024676395   -4.27562330794   -2.00000000000
      4.22049352791   -2.11024676395   -4.27562330794   -2.00000000000
      2.11024676395   -4.22049352791   -4.27562330794   -2.00000000000
     -2.11024676395   -4.22049352791   -4.27562330794   -2.00000000000
     -4.22049352791   -2.11024676395   -4.27562330794   -2.00000000000
     -6.32954443328    2.11144262254   -0.05140086690    2.00000000000
     -2.11144262254    6.32954443328   -0.05140086690    2.00000000000
      2.11144262254    6.32954443328   -0.05140086690    2.00000000000
      6.32954443328    2.11144262254   -0.05140086690    2.00000000000
      6.32954443328   -2.11144262254   -0.05140086690    2.00000000000
      2.11144262254   -6.32954443328   -0.05140086690    2.00000000000
     -2.11144262254   -6.32954443328   -0.05140086690    2.00000000000
     -6.32954443328   -2.11144262254   -0.05140086690    2.00000000000
     -6.33393418427    0.00000000000   -2.14928009216    2.00000000000
      0.00000000000    6.33393418427   -2.14928009216    2.00000000000
      6.33393418427    0.00000000000   -2.14928009216    2.00000000000
      0.00000000000   -6.33393418427   -2.14928009216    2.00000000000
     -6.33028254133    2.11070451449   -2.15696791928   -2.00000000000
     -2.11070451449    6.33028254133   -2.15696791928   -2.00000000000
      2.11070451449    6.33028254133   -2.15696791928   -2.00000000000
      6.33028254133    2.11070451449   -2.15696791928   -2.00000000000
      6.33028254133   -2.11070451449   -2.15696791928   -2.00000000000
      2.11070451449   -6.33028254133   -2.15696791928   -2.00000000000
     -2.11070451449   -6.33028254133   -2.15696791928   -2.00000000000
     -6.33028254133   -2.11070451449   -2.15696791928   -2.00000000000
     -4.22049352791    4.22049352791   -4.27562330794    2.00000000000
      4.22049352791    4.22049352791   -4.27562330794    2.00000000000
      4.22049352791   -4.22049352791   -4.27562330794    2.00000000000
     -4.22049352791   -4.22049352791   -4.27562330794    2.00000000000
     -6.32889565859    4.22049352791    0.00000000000   -2.00000000000
     -4.22049352791    6.32889565859    0.00000000000   -2.00000000000
      4.22049352791    6.32889565859    0.00000000000   -2.00000000000
      6.32889565859    4.22049352791    0.00000000000   -2.00000000000
      6.32889565859   -4.22049352791    0.00000000000   -2.00000000000
      4.22049352791   -6.32889565859    0.00000000000   -2.00000000000
     -4.22049352791   -6.32889565859    0.00000000000   -2.00000000000
     -6.32889565859   -4.22049352791    0.00000000000   -2.00000000000
     -6.33125293065    4.22049352791   -2.15218714568    2.00000000000
     -4.22049352791    6.33125293065   -2.15218714568    2.00000000000
      4.22049352791    6.33125293065   -2.15218714568    2.00000000000
      6.33125293065    4.22049352791   -2.15218714568    2.00000000000
      6.33125293065   -4.22049352791   -2.15218714568    2.00000000000
      4.22049352791   -6.33125293065   -2.15218714568    2.00000000000
     -4.22049352791   -6.33125293065   -2.15218714568    2.00000000000
     -6.33125293065   -4.22049352791   -2.15218714568    2.00000000000
      0.00000000000    0.00000000000   -6.38587007189   -2.00000000000
     -2.11024676395    0.00000000000   -6.38587007189    2.00000000000
      0.00000000000    2.11024676395   -6.38587007189    2.00000000000
      2.11024676395    0.00000000000   -6.38587007189    2.00000000000
      0.00000000000   -2.11024676395   -6.38587007189    2.00000000000
     -2.11024676395    2.11024676395   -6.38587007189   -2.00000000000
      2.11024676395    2.11024676395   -6.38587007189   -2.00000000000
      2.11024676395   -2.11024676395   -6.38587007189   -2.00000000000
     -2.11024676395   -2.11024676395   -6.38587007189   -2.00000000000
     -6.33074029186    0.00000000000   -4.27562330794   -2.00000000000
      0.00000000000    6.33074029186   -4.27562330794   -2.00000000000
      6.33074029186    0.00000000000   -4.27562330794   -2.00000000000
      0.00000000000   -6.33074029186   -4.27562330794   -2.00000000000
     -4.22049352791    0.00000000000   -6.38587007189   -2.00000000000
      0.00000000000    4.22049352791   -6.38587007189   -2.00000000000
      4.22049352791    0.00000000000   -6.38587007189   -2.00000000000
      0.00000000000   -4.22049352791   -6.38587007189   -2.00000000000
     -6.33074029186    2.11024676395   -4.27562330794    2.00000000000
     -2.11024676395    6.33074029186   -4.27562330794    2.00000000000
      2.11024676395    6.33074029186   -4.27562330794    2.00000000000
      6.33074029186    2.11024676395   -4.27562330794    2.00000000000
      6.33074029186   -2.11024676395   -4.27562330794    2.00000000000
      2.11024676395   -6.33074029186   -4.27562330794    2.00000000000
     -2.11024676395   -6.33074029186   -4.27562330794    2.00000000000
     -6.33074029186   -2.11024676395   -4.27562330794    2.00000000000
     -4.22049352791    2.11024676395   -6.38587007189    2.00000000000
     -2.11024676395    4.22049352791   -6.38587007189    2.00000000000
      2.11024676395    4.22049352791   -6.38587007189    2.00000000000
      4.22049352791    2.11024676395   -6.38587007189    2.00000000000
      4.22049352791   -2.11024676395   -6.38587007189    2.00000000000
      2.11024676395   -4.22049352791   -6.38587007189    2.00000000000
     -2.11024676395   -4.22049352791   -6.38587007189    2.00000000000
     -4.22049352791   -2.11024676395   -6.38587007189    2.00000000000
     -8.44098705582    0.00000000000   -0.00772802266    2.00000000000
      0.00000000000    8.44098705582   -0.00772802266    2.00000000000
      8.44098705582    0.00000000000   -0.00772802266    2.00000000000
      0.00000000000   -8.44098705582   -0.00772802266    2.00000000000
     -8.44098705582    2.12018425659   -0.00205593177   -2.00000000000
     -2.12018425659    8.44098705582   -0.00205593177   -2.00000000000
      2.12018425659    8.44098705582   -0.00205593177   -2.00000000000
      8.44098705582    2.12018425659   -0.00205593177   -2.00000000000
      8.44098705582   -2.12018425659   -0.00205593177   -2.00000000000
      2.12018425659   -8.44098705582   -0.00205593177   -2.00000000000
     -2.12018425659   -8.44098705582   -0.00205593177   -2.00000000000
     -8.44098705582   -2.12018425659   -0.00205593177   -2.00000000000
     -8.44098705582    0.00000000000   -2.14902768389   -2.00000000000
      0.00000000000    8.44098705582   -2.14902768389   -2.00000000000
      8.44098705582    0.00000000000   -2.14902768389   -2.00000000000
      0.00000000000   -8.44098705582   -2.14902768389   -2.00000000000
     -6.33074029186    4.22049352791   -4.27562330794   -2.00000000000
     -4.22049352791    6.33074029186   -4.27562330794   -2.00000000000
      4.22049352791    6.33074029186   -4.27562330794   -2.00000000000
      6.33074029186    4.22049352791   -4.27562330794   -2.00000000000
      6.33074029186   -4.22049352791   -4.27562330794   -2.00000000000
      4.22049352791   -6.33074029186   -4.27562330794   -2.00000000000
     -4.22049352791   -6.33074029186   -4.27562330794   -2.00000000000
     -6.33074029186   -4.22049352791   -4.27562330794   -2.00000000000
     -4.22049352791    4.22049352791   -6.38587007189   -2.00000000000
      4.22049352791    4.22049352791   -6.38587007189   -2.00000000000
      4.22049352791   -4.22049352791   -6.38587007189   -2.00000000000
     -4.22049352791   -4.22049352791   -6.38587007189   -2.00000000000
     -6.32954443328    6.32954443328   -0.05140086690    2.00000000000
      6.32954443328    6.32954443328   -0.05140086690    2.00000000000
      6.32954443328   -6.32954443328   -0.05140086690    2.00000000000
     -6.32954443328   -6.32954443328   -0.05140086690    2.00000000000
     -8.44098705582    2.10705287155   -2.14928009216    2.00000000000
     -2.10705287155    8.44098705582   -2.14928009216    2.00000000000
      2.10705287155    8.44098705582   -2.14928009216    2.00000000000
      8.44098705582    2.10705287155   -2.14928009216    2.00000000000
      8.44098705582   -2.10705287155   -2.14928009216    2.00000000000
      2.10705287155   -8.44098705582   -2.14928009216    2.00000000000
     -2.10705287155   -8.44098705582   -2.14928009216    2.00000000000
     -8.44098705582   -2.10705287155   -2.14928009216    2.00000000000
     -6.33074029186    0.00000000000   -6.38587007189    2.00000000000
      0.00000000000    6.33074029186   -6.38587007189    2.00000000000
      6.33074029186    0.00000000000   -6.38587007189    2.00000000000
      0.00000000000   -6.33074029186   -6.38587007189    2.00000000000
     -6.33028254133    6.33028254133   -2.15696791928   -2.00000000000
      6.33028254133    6.33028254133   -2.15696791928   -2.00000000000
      6.33028254133   -6.33028254133   -2.15696791928   -2.00000000000
     -6.33028254133   -6.33028254133   -2.15696791928   -2.00000000000
     -6.33074029186    2.11024676395   -6.38587007189   -2.00000000000
     -2.11024676395    6.33074029186   -6.38587007189   -2.00000000000
      2.11024676395    6.33074029186   -6.38587007189   -2.00000000000
      6.33074029186    2.11024676395   -6.38587007189   -2.00000000000
      6.33074029186   -2.11024676395   -6.38587007189   -2.00000000000
      2.11024676395   -6.33074029186   -6.38587007189   -2.00000000000
     -2.11024676395   -6.33074029186   -6.38587007189   -2.00000000000
     -6.33074029186   -2.11024676395   -6.38587007189   -2.00000000000
     -8.44098705582    4.22049352791   -0.05042534122    2.00000000000
     -4.22049352791    8.44098705582   -0.05042534122    2.00000000000
      4.22049352791    8.44098705582   -0.05042534122    2.00000000000
      8.44098705582    4.22049352791   -0.05042534122    2.00000000000
      8.44098705582   -4.22049352791   -0.05042534122    2.00000000000
      4.22049352791   -8.44098705582   -0.05042534122    2.00000000000
     -4.22049352791   -8.44098705582   -0.05042534122    2.00000000000
     -8.44098705582   -4.22049352791   -0.05042534122    2.00000000000
     -8.44098705582    0.00000000000   -4.27562330794    2.00000000000
      0.00000000000    8.44098705582   -4.27562330794    2.00000000000
      8.44098705582    0.00000000000   -4.27562330794    2.00000000000
      0.00000000000   -8.44098705582   -4.27562330794    2.00000000000
     -8.44098705582    4.22049352791   -2.15902521756   -2.00000000000
     -4.22049352791    8.44098705582   -2.15902521756   -2.00000000000
      4.22049352791    8.44098705582   -2.15902521756   -2.00000000000
      8.44098705582    4.22049352791   -2.15902521756   -2.00000000000
      8.44098705582   -4.22049352791   -2.15902521756   -2.00000000000
      4.22049352791   -8.44098705582   -2.15902521756   -2.00000000000
     -4.22049352791   -8.44098705582   -2.15902521756   -2.00000000000
     -8.44098705582   -4.22049352791   -2.15902521756   -2.00000000000
     -8.44098705582    2.11024676395   -4.27562330794   -2.00000000000
     -2.11024676395    8.44098705582   -4.27562330794   -2.00000000000
      2.11024676395    8.44098705582   -4.27562330794   -2.00000000000
      8.44098705582    2.11024676395   -4.27562330794   -2.00000000000
      8.44098705582   -2.11024676395   -4.27562330794   -2.00000000000
      2.11024676395   -8.44098705582   -4.27562330794   -2.00000000000
     -2.11024676395   -8.44098705582   -4.27562330794   -2.00000000000
     -8.44098705582   -2.11024676395   -4.27562330794   -2.00000000000
     -6.33074029186    6.33074029186   -4.27562330794    2.00000000000
      6.33074029186    6.33074029186   -4.27562330794    2.00000000000
      6.33074029186   -6.33074029186   -4.27562330794    2.00000000000
     -6.33074029186   -6.33074029186   -4.27562330794    2.00000000000
     -6.33074029186    4.22049352791   -6.38587007189    2.00000000000
     -4.22049352791    6.33074029186   -6.38587007189    2.00000000000
      4.22049352791    6.33074029186   -6.38587007189    2.00000000000
      6.33074029186    4.22049352791   -6.38587007189    2.00000000000
      6.33074029186   -4.22049352791   -6.38587007189    2.00000000000
      4.22049352791   -6.33074029186   -6.38587007189    2.00000000000
     -4.22049352791   -6.33074029186   -6.38587007189    2.00000000000
     -6.33074029186   -4.22049352791   -6.38587007189    2.00000000000
     -8.44098705582    4.22049352791   -4.27562330794    2.00000000000
     -4.22049352791    8.44098705582   -4.27562330794    2.00000000000
      4.22049352791    8.44098705582   -4.27562330794    2.00000000000
      8.44098705582    4.22049352791   -4.27562330794    2.00000000000
      8.44098705582   -4.22049352791   -4.27562330794    2.00000000000
      4.22049352791   -8.44098705582   -4.27562330794    2.00000000000
     -4.22049352791   -8.44098705582   -4.27562330794    2.00000000000
     -8.44098705582   -4.22049352791   -4.27562330794    2.00000000000
     -8.44098705582    6.32080279923   -0.00205593177   -2.00000000000
     -6.32080279923    8.44098705582   -0.00205593177   -2.00000000000
      6.32080279923    8.44098705582   -0.00205593177   -2.00000000000
      8.44098705582    6.32080279923   -0.00205593177   -2.00000000000
      8.44098705582   -6.32080279923   -0.00205593177   -2.00000000000
      6.32080279923   -8.44098705582   -0.00205593177   -2.00000000000
     -6.32080279923   -8.44098705582   -0.00205593177   -2.00000000000
     -8.44098705582   -6.32080279923   -0.00205593177   -2.00000000000
    -10.56117131241    0.00000000000   -0.00205593177   -2.00000000000
      0.00000000000   10.56117131241   -0.00205593177   -2.00000000000
     10.56117131241    0.00000000000   -0.00205593177   -2.00000000000
      0.00000000000  -10.56117131241   -0.00205593177   -2.00000000000
     -8.44098705582    0.00000000000   -6.38587007189   -2.00000000000
      0.00000000000    8.44098705582   -6.38587007189   -2.00000000000
      8.44098705582    0.00000000000   -6.38587007189   -2.00000000000
      0.00000000000   -8.44098705582   -6.38587007189   -2.00000000000
    -10.55242967836    2.11144262254   -0.05140086690    2.00000000000
     -2.11144262254   10.55242967836   -0.05140086690    2.00000000000
      2.11144262254   10.55242967836   -0.05140086690    2.00000000000
     10.55242967836    2.11144262254   -0.05140086690    2.00000000000
     10.55242967836   -2.11144262254   -0.05140086690    2.00000000000
      2.11144262254  -10.55242967836   -0.05140086690    2.00000000000
     -2.11144262254  -10.55242967836   -0.05140086690    2.00000000000
    -10.55242967836   -2.11144262254   -0.05140086690    2.00000000000
    -10.54803992736    0.00000000000   -2.14928009216    2.00000000000
      0.00000000000   10.54803992736   -2.14928009216    2.00000000000
     10.54803992736    0.00000000000   -2.14928009216    2.00000000000
      0.00000000000  -10.54803992736   -2.14928009216    2.00000000000
     -8.44098705582    6.33393418427   -2.14928009216    2.00000000000
     -6.33393418427    8.44098705582   -2.14928009216    2.00000000000
      6.33393418427    8.44098705582   -2.14928009216    2.00000000000
      8.44098705582    6.33393418427   -2.14928009216    2.00000000000
      8.44098705582   -6.33393418427   -2.14928009216    2.00000000000
      6.33393418427   -8.44098705582   -2.14928009216    2.00000000000
     -6.33393418427   -8.44098705582   -2.14928009216    2.00000000000
     -8.44098705582   -6.33393418427   -2.14928009216    2.00000000000
     -8.44098705582    2.11024676395   -6.38587007189    2.00000000000
     -2.11024676395    8.44098705582   -6.38587007189    2.00000000000
      2.11024676395    8.44098705582   -6.38587007189    2.00000000000
      8.44098705582    2.11024676395   -6.38587007189    2.00000000000
      8.44098705582   -2.11024676395   -6.38587007189    2.00000000000
      2.11024676395   -8.44098705582   -6.38587007189    2.00000000000
     -2.11024676395   -8.44098705582   -6.38587007189    2.00000000000
     -8.44098705582   -2.11024676395   -6.38587007189    2.00000000000
    -10.55169157031    2.11070451449   -2.15696791928   -2.00000000000
     -2.11070451449   10.55169157031   -2.15696791928   -2.00000000000
      2.11070451449   10.55169157031   -2.15696791928   -2.00000000000
     10.55169157031    2.11070451449   -2.15696791928   -2.00000000000
     10.55169157031   -2.11070451449   -2.15696791928   -2.00000000000
      2.11070451449  -10.55169157031   -2.15696791928   -2.00000000000
     -2.11070451449  -10.55169157031   -2.15696791928   -2.00000000000
    -10.55169157031   -2.11070451449   -2.15696791928   -2.00000000000
     -6.33074029186    6.33074029186   -6.38587007189   -2.00000000000
      6.33074029186    6.33074029186   -6.38587007189   -2.00000000000
      6.33074029186   -6.33074029186   -6.38587007189   -2.00000000000
     -6.33074029186   -6.33074029186   -6.38587007189   -2.00000000000
    -10.55307845305    4.22049352791    0.00000000000   -2.00000000000
     -4.22049352791   10.55307845305    0.00000000000   -2.00000000000
      4.22049352791   10.55307845305    0.00000000000   -2.00000000000
     10.55307845305    4.22049352791    0.00000000000   -2.00000000000
     10.55307845305   -4.22049352791    0.00000000000   -2.00000000000
      4.22049352791  -10.55307845305    0.00000000000   -2.00000000000
     -4.22049352791  -10.55307845305    0.00000000000   -2.00000000000
    -10.55307845305   -4.22049352791    0.00000000000   -2.00000000000
    -10.55123381977    0.00000000000   -4.27562330794   -2.00000000000
     -8.44098705582    6.33074029186   -4.27562330794   -2.00000000000
     -6.33074029186    8.44098705582   -4.27562330794   -2.00000000000
      0.00000000000   10.55123381977   -4.27562330794   -2.00000000000
      6.33074029186    8.44098705582   -4.27562330794   -2.00000000000
      8.44098705582    6.33074029186   -4.27562330794   -2.00000000000
     10.55123381977    0.00000000000   -4.27562330794   -2.00000000000
      8.44098705582   -6.33074029186   -4.27562330794   -2.00000000000
      6.33074029186   -8.44098705582   -4.27562330794   -2.00000000000
      0.00000000000  -10.55123381977   -4.27562330794   -2.00000000000
     -6.33074029186   -8.44098705582   -4.27562330794   -2.00000000000
     -8.44098705582   -6.33074029186   -4.27562330794   -2.00000000000
     -8.44098705582    4.22049352791   -6.38587007189   -2.00000000000
     -4.22049352791    8.44098705582   -6.38587007189   -2.00000000000
      4.22049352791    8.44098705582   -6.38587007189   -2.00000000000
      8.44098705582    4.22049352791   -6.38587007189   -2.00000000000
      8.44098705582   -4.22049352791   -6.38587007189   -2.00000000000
      4.22049352791   -8.44098705582   -6.38587007189   -2.00000000000
     -4.22049352791   -8.44098705582   -6.38587007189   -2.00000000000
     -8.44098705582   -4.22049352791   -6.38587007189   -2.00000000000
    -10.55072118099    4.22049352791   -2.15218714568    2.00000000000
     -4.22049352791   10.55072118099   -2.15218714568    2.00000000000
      4.22049352791   10.55072118099   -2.15218714568    2.00000000000
     10.55072118099    4.22049352791   -2.15218714568    2.00000000000
     10.55072118099   -4.22049352791   -2.15218714568    2.00000000000
      4.22049352791  -10.55072118099   -2.15218714568    2.00000000000
     -4.22049352791  -10.55072118099   -2.15218714568    2.00000000000
    -10.55072118099   -4.22049352791   -2.15218714568    2.00000000000
    -10.55123381977    2.11024676395   -4.27562330794    2.00000000000
     -2.11024676395   10.55123381977   -4.27562330794    2.00000000000
      2.11024676395   10.55123381977   -4.27562330794    2.00000000000
     10.55123381977    2.11024676395   -4.27562330794    2.00000000000
     10.55123381977   -2.11024676395   -4.27562330794    2.00000000000
      2.11024676395  -10.55123381977   -4.27562330794    2.00000000000
     -2.11024676395  -10.55123381977   -4.27562330794    2.00000000000
    -10.55123381977   -2.11024676395   -4.27562330794    2.00000000000
     -8.44098705582    8.44098705582   -0.00772802266    2.00000000000
      8.44098705582    8.44098705582   -0.00772802266    2.00000000000
      8.44098705582   -8.44098705582   -0.00772802266    2.00000000000
     -8.44098705582   -8.44098705582   -0.00772802266    2.00000000000
     -8.44098705582    8.44098705582   -2.14902768389   -2.00000000000
      8.44098705582    8.44098705582   -2.14902768389   -2.00000000000
      8.44098705582   -8.44098705582   -2.14902768389   -2.00000000000
     -8.44098705582   -8.44098705582   -2.14902768389   -2.00000000000
    -10.55123381977    4.22049352791   -4.27562330794   -2.00000000000
     -4.22049352791   10.55123381977   -4.27562330794   -2.00000000000
      4.22049352791   10.55123381977   -4.27562330794   -2.00000000000
     10.55123381977    4.22049352791   -4.27562330794   -2.00000000000
     10.55123381977   -4.22049352791   -4.27562330794   -2.00000000000
      4.22049352791  -10.55123381977   -4.27562330794   -2.00000000000
     -4.22049352791  -10.55123381977   -4.27562330794   -2.00000000000
    -10.55123381977   -4.22049352791   -4.27562330794   -2.00000000000
    -10.55242967836    6.32954443328   -0.05140086690    2.00000000000
     -6.32954443328   10.55242967836   -0.05140086690    2.00000000000
      6.32954443328   10.55242967836   -0.05140086690    2.00000000000
     10.55242967836    6.32954443328   -0.05140086690    2.00000000000
     10.55242967836   -6.32954443328   -0.05140086690    2.00000000000
      6.32954443328  -10.55242967836   -0.05140086690    2.00000000000
     -6.32954443328  -10.55242967836   -0.05140086690    2.00000000000
    -10.55242967836   -6.32954443328   -0.05140086690    2.00000000000
    -10.55123381977    0.00000000000   -6.38587007189    2.00000000000
     -8.44098705582    6.33074029186   -6.38587007189    2.00000000000
     -6.33074029186    8.44098705582   -6.38587007189    2.00000000000
      0.00000000000   10.55123381977   -6.38587007189    2.00000000000
      6.33074029186    8.44098705582   -6.38587007189    2.00000000000
      8.44098705582    6.33074029186   -6.38587007189    2.00000000000
     10.55123381977    0.00000000000   -6.38587007189    2.00000000000
      8.44098705582   -6.33074029186   -6.38587007189    2.00000000000
      6.33074029186   -8.44098705582   -6.38587007189    2.00000000000
      0.00000000000  -10.55123381977   -6.38587007189    2.00000000000
     -6.33074029186   -8.44098705582   -6.38587007189    2.00000000000
     -8.44098705582   -6.33074029186   -6.38587007189    2.00000000000
    -10.55169157031    6.33028254133   -2.15696791928   -2.00000000000
     -6.33028254133   10.55169157031   -2.15696791928   -2.00000000000
      6.33028254133   10.55169157031   -2.15696791928   -2.00000000000
     10.55169157031    6.33028254133   -2.15696791928   -2.00000000000
     10.55169157031   -6.33028254133   -2.15696791928   -2.00000000000
      6.33028254133  -10.55169157031   -2.15696791928   -2.00000000000
     -6.33028254133  -10.55169157031   -2.15696791928   -2.00000000000
    -10.55169157031   -6.33028254133   -2.15696791928   -2.00000000000
    -10.55123381977    2.11024676395   -6.38587007189   -2.00000000000
     -2.11024676395   10.55123381977   -6.38587007189   -2.00000000000
      2.11024676395   10.55123381977   -6.38587007189   -2.00000000000
     10.55123381977    2.11024676395   -6.38587007189   -2.00000000000
     10.55123381977   -2.11024676395   -6.38587007189   -2.00000000000
      2.11024676395  -10.55123381977   -6.38587007189   -2.00000000000
     -2.11024676395  -10.55123381977   -6.38587007189   -2.00000000000
    -10.55123381977   -2.11024676395   -6.38587007189   -2.00000000000
    -12.66148058373    0.00000000000   -0.05042534122    2.00000000000
      0.00000000000   12.66148058373   -0.05042534122    2.00000000000
     12.66148058373    0.00000000000   -0.05042534122    2.00000000000
      0.00000000000  -12.66148058373   -0.05042534122    2.00000000000
     -8.44098705582    8.44098705582   -4.27562330794    2.00000000000
      8.44098705582    8.44098705582   -4.27562330794    2.00000000000
      8.44098705582   -8.44098705582   -4.27562330794    2.00000000000
     -8.44098705582   -8.44098705582   -4.27562330794    2.00000000000
    -12.66148058373    2.11209139723    0.00000000000   -2.00000000000
     -2.11209139723   12.66148058373    0.00000000000   -2.00000000000
      2.11209139723   12.66148058373    0.00000000000   -2.00000000000
     12.66148058373    2.11209139723    0.00000000000   -2.00000000000
     12.66148058373   -2.11209139723    0.00000000000   -2.00000000000
      2.11209139723  -12.66148058373    0.00000000000   -2.00000000000
     -2.11209139723  -12.66148058373    0.00000000000   -2.00000000000
    -12.66148058373   -2.11209139723    0.00000000000   -2.00000000000
    -12.66148058373    0.00000000000   -2.15902521756   -2.00000000000
      0.00000000000   12.66148058373   -2.15902521756   -2.00000000000
     12.66148058373    0.00000000000   -2.15902521756   -2.00000000000
      0.00000000000  -12.66148058373   -2.15902521756   -2.00000000000
    -12.66148058373    2.10973412517   -2.15218714568    2.00000000000
     -2.10973412517   12.66148058373   -2.15218714568    2.00000000000
      2.10973412517   12.66148058373   -2.15218714568    2.00000000000
     12.66148058373    2.10973412517   -2.15218714568    2.00000000000
     12.66148058373   -2.10973412517   -2.15218714568    2.00000000000
      2.10973412517  -12.66148058373   -2.15218714568    2.00000000000
     -2.10973412517  -12.66148058373   -2.15218714568    2.00000000000
    -12.66148058373   -2.10973412517   -2.15218714568    2.00000000000
    -10.55123381977    6.33074029186   -4.27562330794    2.00000000000
     -6.33074029186   10.55123381977   -4.27562330794    2.00000000000
      6.33074029186   10.55123381977   -4.27562330794    2.00000000000
     10.55123381977    6.33074029186   -4.27562330794    2.00000000000
     10.55123381977   -6.33074029186   -4.27562330794    2.00000000000
      6.33074029186  -10.55123381977   -4.27562330794    2.00000000000
     -6.33074029186  -10.55123381977   -4.27562330794    2.00000000000
    -10.55123381977   -6.33074029186   -4.27562330794    2.00000000000
    -10.55123381977    4.22049352791   -6.38587007189    2.00000000000
     -4.22049352791   10.55123381977   -6.38587007189    2.00000000000
      4.22049352791   10.55123381977   -6.38587007189    2.00000000000
     10.55123381977    4.22049352791   -6.38587007189    2.00000000000
     10.55123381977   -4.22049352791   -6.38587007189    2.00000000000
      4.22049352791  -10.55123381977   -6.38587007189    2.00000000000
     -4.22049352791  -10.55123381977   -6.38587007189    2.00000000000
    -10.55123381977   -4.22049352791   -6.38587007189    2.00000000000
    -12.66148058373    4.22049352791   -0.04765173215    2.00000000000
     -4.22049352791   12.66148058373   -0.04765173215    2.00000000000
      4.22049352791   12.66148058373   -0.04765173215    2.00000000000
     12.66148058373    4.22049352791   -0.04765173215    2.00000000000
     12.66148058373   -4.22049352791   -0.04765173215    2.00000000000
      4.22049352791  -12.66148058373   -0.04765173215    2.00000000000
     -4.22049352791  -12.66148058373   -0.04765173215    2.00000000000
    -12.66148058373   -4.22049352791   -0.04765173215    2.00000000000
    -12.66148058373    0.00000000000   -4.27562330794    2.00000000000
      0.00000000000   12.66148058373   -4.27562330794    2.00000000000
     12.66148058373    0.00000000000   -4.27562330794    2.00000000000
      0.00000000000  -12.66148058373   -4.27562330794    2.00000000000
    -12.66148058373    4.22049352791   -2.15801787533   -2.00000000000
     -4.22049352791   12.66148058373   -2.15801787533   -2.00000000000
      4.22049352791   12.66148058373   -2.15801787533   -2.00000000000
     12.66148058373    4.22049352791   -2.15801787533   -2.00000000000
     12.66148058373   -4.22049352791   -2.15801787533   -2.00000000000
      4.22049352791  -12.66148058373   -2.15801787533   -2.00000000000
     -4.22049352791  -12.66148058373   -2.15801787533   -2.00000000000
    -12.66148058373   -4.22049352791   -2.15801787533   -2.00000000000
    -10.56117131241    8.44098705582   -0.00205593177   -2.00000000000
     -8.44098705582   10.56117131241   -0.00205593177   -2.00000000000
      8.44098705582   10.56117131241   -0.00205593177   -2.00000000000
     10.56117131241    8.44098705582   -0.00205593177   -2.00000000000
     10.56117131241   -8.44098705582   -0.00205593177   -2.00000000000
      8.44098705582  -10.56117131241   -0.00205593177   -2.00000000000
     -8.44098705582  -10.56117131241   -0.00205593177   -2.00000000000
    -10.56117131241   -8.44098705582   -0.00205593177   -2.00000000000
    -12.66148058373    2.11024676395   -4.27562330794   -2.00000000000
     -2.11024676395   12.66148058373   -4.27562330794   -2.00000000000
      2.11024676395   12.66148058373   -4.27562330794   -2.00000000000
     12.66148058373    2.11024676395   -4.27562330794   -2.00000000000
     12.66148058373   -2.11024676395   -4.27562330794   -2.00000000000
      2.11024676395  -12.66148058373   -4.27562330794   -2.00000000000
     -2.11024676395  -12.66148058373   -4.27562330794   -2.00000000000
    -12.66148058373   -2.11024676395   -4.27562330794   -2.00000000000
     -8.44098705582    8.44098705582   -6.38587007189   -2.00000000000
      8.44098705582    8.44098705582   -6.38587007189   -2.00000000000
      8.44098705582   -8.44098705582   -6.38587007189   -2.00000000000
     -8.44098705582   -8.44098705582   -6.38587007189   -2.00000000000
    -10.54803992736    8.44098705582   -2.14928009216    2.00000000000
     -8.44098705582   10.54803992736   -2.14928009216    2.00000000000
      8.44098705582   10.54803992736   -2.14928009216    2.00000000000
     10.54803992736    8.44098705582   -2.14928009216    2.00000000000
     10.54803992736   -8.44098705582   -2.14928009216    2.00000000000
      8.44098705582  -10.54803992736   -2.14928009216    2.00000000000
     -8.44098705582  -10.54803992736   -2.14928009216    2.00000000000
    -10.54803992736   -8.44098705582   -2.14928009216    2.00000000000
    -10.55123381977    6.33074029186   -6.38587007189   -2.00000000000
     -6.33074029186   10.55123381977   -6.38587007189   -2.00000000000
      6.33074029186   10.55123381977   -6.38587007189   -2.00000000000
     10.55123381977    6.33074029186   -6.38587007189   -2.00000000000
     10.55123381977   -6.33074029186   -6.38587007189   -2.00000000000
      6.33074029186  -10.55123381977   -6.38587007189   -2.00000000000
     -6.33074029186  -10.55123381977   -6.38587007189   -2.00000000000
    -10.55123381977   -6.33074029186   -6.38587007189   -2.00000000000
    -12.66148058373    4.22049352791   -4.27562330794    2.00000000000
     -4.22049352791   12.66148058373   -4.27562330794    2.00000000000
      4.22049352791   12.66148058373   -4.27562330794    2.00000000000
     12.66148058373    4.22049352791   -4.27562330794    2.00000000000
     12.66148058373   -4.22049352791   -4.27562330794    2.00000000000
      4.22049352791  -12.66148058373   -4.27562330794    2.00000000000
     -4.22049352791  -12.66148058373   -4.27562330794    2.00000000000
    -12.66148058373   -4.22049352791   -4.27562330794    2.00000000000
    -12.66148058373    6.32889565859    0.00000000000   -2.00000000000
     -6.32889565859   12.66148058373    0.00000000000   -2.00000000000
      6.32889565859   12.66148058373    0.00000000000   -2.00000000000
     12.66148058373    6.32889565859    0.00000000000   -2.00000000000
     12.66148058373   -6.32889565859    0.00000000000   -2.00000000000
      6.32889565859  -12.66148058373    0.00000000000   -2.00000000000
     -6.32889565859  -12.66148058373    0.00000000000   -2.00000000000
    -12.66148058373   -6.32889565859    0.00000000000   -2.00000000000
    -10.55123381977    8.44098705582   -4.27562330794   -2.00000000000
     -8.44098705582   10.55123381977   -4.27562330794   -2.00000000000
      8.44098705582   10.55123381977   -4.27562330794   -2.00000000000
     10.55123381977    8.44098705582   -4.27562330794   -2.00000000000
     10.55123381977   -8.44098705582   -4.27562330794   -2.00000000000
      8.44098705582  -10.55123381977   -4.27562330794   -2.00000000000
     -8.44098705582  -10.55123381977   -4.27562330794   -2.00000000000
    -10.55123381977   -8.44098705582   -4.27562330794   -2.00000000000
    -12.66148058373    0.00000000000   -6.38587007189   -2.00000000000
      0.00000000000   12.66148058373   -6.38587007189   -2.00000000000
     12.66148058373    0.00000000000   -6.38587007189   -2.00000000000
      0.00000000000  -12.66148058373   -6.38587007189   -2.00000000000
    -12.66148058373    6.33125293065   -2.15218714568    2.00000000000
     -6.33125293065   12.66148058373   -2.15218714568    2.00000000000
      6.33125293065   12.66148058373   -2.15218714568    2.00000000000
     12.66148058373    6.33125293065   -2.15218714568    2.00000000000
     12.66148058373   -6.33125293065   -2.15218714568    2.00000000000
      6.33125293065  -12.66148058373   -2.15218714568    2.00000000000
     -6.33125293065  -12.66148058373   -2.15218714568    2.00000000000
    -12.66148058373   -6.33125293065   -2.15218714568    2.00000000000
    -12.66148058373    2.11024676395   -6.38587007189    2.00000000000
     -2.11024676395   12.66148058373   -6.38587007189    2.00000000000
      2.11024676395   12.66148058373   -6.38587007189    2.00000000000
     12.66148058373    2.11024676395   -6.38587007189    2.00000000000
     12.66148058373   -2.11024676395   -6.38587007189    2.00000000000
      2.11024676395  -12.66148058373   -6.38587007189    2.00000000000
     -2.11024676395  -12.66148058373   -6.38587007189    2.00000000000
    -12.66148058373   -2.11024676395   -6.38587007189    2.00000000000
    -14.76178985505    0.00000000000   -0.00205593177   -2.00000000000
      0.00000000000   14.76178985505   -0.00205593177   -2.00000000000
     14.76178985505    0.00000000000   -0.00205593177   -2.00000000000
      0.00000000000  -14.76178985505   -0.00205593177   -2.00000000000
    -12.66148058373    6.33074029186   -4.27562330794   -2.00000000000
     -6.33074029186   12.66148058373   -4.27562330794   -2.00000000000
      6.33074029186   12.66148058373   -4.27562330794   -2.00000000000
     12.66148058373    6.33074029186   -4.27562330794   -2.00000000000
     12.66148058373   -6.33074029186   -4.27562330794   -2.00000000000
      6.33074029186  -12.66148058373   -4.27562330794   -2.00000000000
     -6.33074029186  -12.66148058373   -4.27562330794   -2.00000000000
    -12.66148058373   -6.33074029186   -4.27562330794   -2.00000000000
    -12.66148058373    4.22049352791   -6.38587007189   -2.00000000000
     -4.22049352791   12.66148058373   -6.38587007189   -2.00000000000
      4.22049352791   12.66148058373   -6.38587007189   -2.00000000000
     12.66148058373    4.22049352791   -6.38587007189   -2.00000000000
     12.66148058373   -4.22049352791   -6.38587007189   -2.00000000000
      4.22049352791  -12.66148058373   -6.38587007189   -2.00000000000
     -4.22049352791  -12.66148058373   -6.38587007189   -2.00000000000
    -12.66148058373   -4.22049352791   -6.38587007189   -2.00000000000
    -14.77053148910    2.11144262254   -0.05140086690    2.00000000000
     -2.11144262254   14.77053148910   -0.05140086690    2.00000000000
      2.11144262254   14.77053148910   -0.05140086690    2.00000000000
     14.77053148910    2.11144262254   -0.05140086690    2.00000000000
     14.77053148910   -2.11144262254   -0.05140086690    2.00000000000
      2.11144262254  -14.77053148910   -0.05140086690    2.00000000000
     -2.11144262254  -14.77053148910   -0.05140086690    2.00000000000
    -14.77053148910   -2.11144262254   -0.05140086690    2.00000000000
    -10.55242967836   10.55242967836   -0.05140086690    2.00000000000
     10.55242967836   10.55242967836   -0.05140086690    2.00000000000
     10.55242967836  -10.55242967836   -0.05140086690    2.00000000000
    -10.55242967836  -10.55242967836   -0.05140086690    2.00000000000
    -14.77492124009    0.00000000000   -2.14928009216    2.00000000000
      0.00000000000   14.77492124009   -2.14928009216    2.00000000000
     14.77492124009    0.00000000000   -2.14928009216    2.00000000000
      0.00000000000  -14.77492124009   -2.14928009216    2.00000000000
    -10.55123381977    8.44098705582   -6.38587007189    2.00000000000
     -8.44098705582   10.55123381977   -6.38587007189    2.00000000000
      8.44098705582   10.55123381977   -6.38587007189    2.00000000000
     10.55123381977    8.44098705582   -6.38587007189    2.00000000000
     10.55123381977   -8.44098705582   -6.38587007189    2.00000000000
      8.44098705582  -10.55123381977   -6.38587007189    2.00000000000
     -8.44098705582  -10.55123381977   -6.38587007189    2.00000000000
    -10.55123381977   -8.44098705582   -6.38587007189    2.00000000000
    -14.77126959714    2.11070451449   -2.15696791928   -2.00000000000
     -2.11070451449   14.77126959714   -2.15696791928   -2.00000000000
      2.11070451449   14.77126959714   -2.15696791928   -2.00000000000
     14.77126959714    2.11070451449   -2.15696791928   -2.00000000000
     14.77126959714   -2.11070451449   -2.15696791928   -2.00000000000
      2.11070451449  -14.77126959714   -2.15696791928   -2.00000000000
     -2.11070451449  -14.77126959714   -2.15696791928   -2.00000000000
    -14.77126959714   -2.11070451449   -2.15696791928   -2.00000000000
    -10.55169157031   10.55169157031   -2.15696791928   -2.00000000000
     10.55169157031   10.55169157031   -2.15696791928   -2.00000000000
     10.55169157031  -10.55169157031   -2.15696791928   -2.00000000000
    -10.55169157031  -10.55169157031   -2.15696791928   -2.00000000000
    -12.66148058373    8.44098705582   -0.05042534122    2.00000000000
     -8.44098705582   12.66148058373   -0.05042534122    2.00000000000
      8.44098705582   12.66148058373   -0.05042534122    2.00000000000
     12.66148058373    8.44098705582   -0.05042534122    2.00000000000
     12.66148058373   -8.44098705582   -0.05042534122    2.00000000000
      8.44098705582  -12.66148058373   -0.05042534122    2.00000000000
     -8.44098705582  -12.66148058373   -0.05042534122    2.00000000000
    -12.66148058373   -8.44098705582   -0.05042534122    2.00000000000
    -14.76988271440    4.22049352791    0.00000000000   -2.00000000000
     -4.22049352791   14.76988271440    0.00000000000   -2.00000000000
      4.22049352791   14.76988271440    0.00000000000   -2.00000000000
     14.76988271440    4.22049352791    0.00000000000   -2.00000000000
     14.76988271440   -4.22049352791    0.00000000000   -2.00000000000
      4.22049352791  -14.76988271440    0.00000000000   -2.00000000000
     -4.22049352791  -14.76988271440    0.00000000000   -2.00000000000
    -14.76988271440   -4.22049352791    0.00000000000   -2.00000000000
    -12.66148058373    8.44098705582   -2.15902521756   -2.00000000000
     -8.44098705582   12.66148058373   -2.15902521756   -2.00000000000
      8.44098705582   12.66148058373   -2.15902521756   -2.00000000000
     12.66148058373    8.44098705582   -2.15902521756   -2.00000000000
     12.66148058373   -8.44098705582   -2.15902521756   -2.00000000000
      8.44098705582  -12.66148058373   -2.15902521756   -2.00000000000
     -8.44098705582  -12.66148058373   -2.15902521756   -2.00000000000
    -12.66148058373   -8.44098705582   -2.15902521756   -2.00000000000
    -14.77172734768    0.00000000000   -4.27562330794   -2.00000000000
      0.00000000000   14.77172734768   -4.27562330794   -2.00000000000
     14.77172734768    0.00000000000   -4.27562330794   -2.00000000000
      0.00000000000  -14.77172734768   -4.27562330794   -2.00000000000
    -14.77223998647    4.22049352791   -2.15218714568    2.00000000000
     -4.22049352791   14.77223998647   -2.15218714568    2.00000000000
      4.22049352791   14.77223998647   -2.15218714568    2.00000000000
     14.77223998647    4.22049352791   -2.15218714568    2.00000000000
     14.77223998647   -4.22049352791   -2.15218714568    2.00000000000
      4.22049352791  -14.77223998647   -2.15218714568    2.00000000000
     -4.22049352791  -14.77223998647   -2.15218714568    2.00000000000
    -14.77223998647   -4.22049352791   -2.15218714568    2.00000000000
    -14.77172734768    2.11024676395   -4.27562330794    2.00000000000
    -10.55123381977   10.55123381977   -4.27562330794    2.00000000000
     -2.11024676395   14.77172734768   -4.27562330794    2.00000000000
      2.11024676395   14.77172734768   -4.27562330794    2.00000000000
     10.55123381977   10.55123381977   -4.27562330794    2.00000000000
     14.77172734768    2.11024676395   -4.27562330794    2.00000000000
     14.77172734768   -2.11024676395   -4.27562330794    2.00000000000
     10.55123381977  -10.55123381977   -4.27562330794    2.00000000000
      2.11024676395  -14.77172734768   -4.27562330794    2.00000000000
     -2.11024676395  -14.77172734768   -4.27562330794    2.00000000000
    -10.55123381977  -10.55123381977   -4.27562330794    2.00000000000
    -14.77172734768   -2.11024676395   -4.27562330794    2.00000000000
    -12.66148058373    6.33074029186   -6.38587007189    2.00000000000
     -6.33074029186   12.66148058373   -6.38587007189    2.00000000000
      6.33074029186   12.66148058373   -6.38587007189    2.00000000000
     12.66148058373    6.33074029186   -6.38587007189    2.00000000000
     12.66148058373   -6.33074029186   -6.38587007189    2.00000000000
      6.33074029186  -12.66148058373   -6.38587007189    2.00000000000
     -6.33074029186  -12.66148058373   -6.38587007189    2.00000000000
    -12.66148058373   -6.33074029186   -6.38587007189    2.00000000000
    -12.66148058373    8.44098705582   -4.27562330794    2.00000000000
     -8.44098705582   12.66148058373   -4.27562330794    2.00000000000
      8.44098705582   12.66148058373   -4.27562330794    2.00000000000
     12.66148058373    8.44098705582   -4.27562330794    2.00000000000
     12.66148058373   -8.44098705582   -4.27562330794    2.00000000000
      8.44098705582  -12.66148058373   -4.27562330794    2.00000000000
     -8.44098705582  -12.66148058373   -4.27562330794    2.00000000000
    -12.66148058373   -8.44098705582   -4.27562330794    2.00000000000
    -14.77172734768    4.22049352791   -4.27562330794   -2.00000000000
     -4.22049352791   14.77172734768   -4.27562330794   -2.00000000000
      4.22049352791   14.77172734768   -4.27562330794   -2.00000000000
     14.77172734768    4.22049352791   -4.27562330794   -2.00000000000
     14.77172734768   -4.22049352791   -4.27562330794   -2.00000000000
      4.22049352791  -14.77172734768   -4.27562330794   -2.00000000000
     -4.22049352791  -14.77172734768   -4.27562330794   -2.00000000000
    -14.77172734768   -4.22049352791   -4.27562330794   -2.00000000000
    -14.77053148910    6.32954443328   -0.05140086690    2.00000000000
     -6.32954443328   14.77053148910   -0.05140086690    2.00000000000
      6.32954443328   14.77053148910   -0.05140086690    2.00000000000
     14.77053148910    6.32954443328   -0.05140086690    2.00000000000
     14.77053148910   -6.32954443328   -0.05140086690    2.00000000000
      6.32954443328  -14.77053148910   -0.05140086690    2.00000000000
     -6.32954443328  -14.77053148910   -0.05140086690    2.00000000000
    -14.77053148910   -6.32954443328   -0.05140086690    2.00000000000
    -14.77172734768    0.00000000000   -6.38587007189    2.00000000000
      0.00000000000   14.77172734768   -6.38587007189    2.00000000000
     14.77172734768    0.00000000000   -6.38587007189    2.00000000000
      0.00000000000  -14.77172734768   -6.38587007189    2.00000000000
    -14.77126959714    6.33028254133   -2.15696791928   -2.00000000000
     -6.33028254133   14.77126959714   -2.15696791928   -2.00000000000
      6.33028254133   14.77126959714   -2.15696791928   -2.00000000000
     14.77126959714    6.33028254133   -2.15696791928   -2.00000000000
     14.77126959714   -6.33028254133   -2.15696791928   -2.00000000000
      6.33028254133  -14.77126959714   -2.15696791928   -2.00000000000
     -6.33028254133  -14.77126959714   -2.15696791928   -2.00000000000
    -14.77126959714   -6.33028254133   -2.15696791928   -2.00000000000
    -14.77172734768    2.11024676395   -6.38587007189   -2.00000000000
    -10.55123381977   10.55123381977   -6.38587007189   -2.00000000000
     -2.11024676395   14.77172734768   -6.38587007189   -2.00000000000
      2.11024676395   14.77172734768   -6.38587007189   -2.00000000000
     10.55123381977   10.55123381977   -6.38587007189   -2.00000000000
     14.77172734768    2.11024676395   -6.38587007189   -2.00000000000
     14.77172734768   -2.11024676395   -6.38587007189   -2.00000000000
     10.55123381977  -10.55123381977   -6.38587007189   -2.00000000000
      2.11024676395  -14.77172734768   -6.38587007189   -2.00000000000
     -2.11024676395  -14.77172734768   -6.38587007189   -2.00000000000
    -10.55123381977  -10.55123381977   -6.38587007189   -2.00000000000
    -14.77172734768   -2.11024676395   -6.38587007189   -2.00000000000
    -12.66148058373   10.55307845305    0.00000000000   -2.00000000000
    -10.55307845305   12.66148058373    0.00000000000   -2.00000000000
     10.55307845305   12.66148058373    0.00000000000   -2.00000000000
     12.66148058373   10.55307845305    0.00000000000   -2.00000000000
     12.66148058373  -10.55307845305    0.00000000000   -2.00000000000
     10.55307845305  -12.66148058373    0.00000000000   -2.00000000000
    -10.55307845305  -12.66148058373    0.00000000000   -2.00000000000
    -12.66148058373  -10.55307845305    0.00000000000   -2.00000000000
    -12.66148058373    8.44098705582   -6.38587007189   -2.00000000000
     -8.44098705582   12.66148058373   -6.38587007189   -2.00000000000
      8.44098705582   12.66148058373   -6.38587007189   -2.00000000000
     12.66148058373    8.44098705582   -6.38587007189   -2.00000000000
     12.66148058373   -8.44098705582   -6.38587007189   -2.00000000000
      8.44098705582  -12.66148058373   -6.38587007189   -2.00000000000
     -8.44098705582  -12.66148058373   -6.38587007189   -2.00000000000
    -12.66148058373   -8.44098705582   -6.38587007189   -2.00000000000
    -12.66148058373   10.55072118099   -2.15218714568    2.00000000000
    -10.55072118099   12.66148058373   -2.15218714568    2.00000000000
     10.55072118099   12.66148058373   -2.15218714568    2.00000000000
     12.66148058373   10.55072118099   -2.15218714568    2.00000000000
     12.66148058373  -10.55072118099   -2.15218714568    2.00000000000
     10.55072118099  -12.66148058373   -2.15218714568    2.00000000000
    -10.55072118099  -12.66148058373   -2.15218714568    2.00000000000
    -12.66148058373  -10.55072118099   -2.15218714568    2.00000000000
    -14.77172734768    6.33074029186   -4.27562330794    2.00000000000
     -6.33074029186   14.77172734768   -4.27562330794    2.00000000000
      6.33074029186   14.77172734768   -4.27562330794    2.00000000000
     14.77172734768    6.33074029186   -4.27562330794    2.00000000000
     14.77172734768   -6.33074029186   -4.27562330794    2.00000000000
      6.33074029186  -14.77172734768   -4.27562330794    2.00000000000
     -6.33074029186  -14.77172734768   -4.27562330794    2.00000000000
    -14.77172734768   -6.33074029186   -4.27562330794    2.00000000000
    -14.77172734768    4.22049352791   -6.38587007189    2.00000000000
     -4.22049352791   14.77172734768   -6.38587007189    2.00000000000
      4.22049352791   14.77172734768   -6.38587007189    2.00000000000
     14.77172734768    4.22049352791   -6.38587007189    2.00000000000
     14.77172734768   -4.22049352791   -6.38587007189    2.00000000000
      4.22049352791  -14.77172734768   -6.38587007189    2.00000000000
     -4.22049352791  -14.77172734768   -6.38587007189    2.00000000000
    -14.77172734768   -4.22049352791   -6.38587007189    2.00000000000
    -16.88197411163    0.00000000000   -0.00772802266    2.00000000000
      0.00000000000   16.88197411163   -0.00772802266    2.00000000000
     16.88197411163    0.00000000000   -0.00772802266    2.00000000000
      0.00000000000  -16.88197411163   -0.00772802266    2.00000000000
    -14.76178985505    8.44098705582   -0.00205593177   -2.00000000000
     -8.44098705582   14.76178985505   -0.00205593177   -2.00000000000
      8.44098705582   14.76178985505   -0.00205593177   -2.00000000000
     14.76178985505    8.44098705582   -0.00205593177   -2.00000000000
     14.76178985505   -8.44098705582   -0.00205593177   -2.00000000000
      8.44098705582  -14.76178985505   -0.00205593177   -2.00000000000
     -8.44098705582  -14.76178985505   -0.00205593177   -2.00000000000
    -14.76178985505   -8.44098705582   -0.00205593177   -2.00000000000
    -16.88197411163    2.12018425659   -0.00205593177   -2.00000000000
     -2.12018425659   16.88197411163   -0.00205593177   -2.00000000000
      2.12018425659   16.88197411163   -0.00205593177   -2.00000000000
     16.88197411163    2.12018425659   -0.00205593177   -2.00000000000
     16.88197411163   -2.12018425659   -0.00205593177   -2.00000000000
      2.12018425659  -16.88197411163   -0.00205593177   -2.00000000000
     -2.12018425659  -16.88197411163   -0.00205593177   -2.00000000000
    -16.88197411163   -2.12018425659   -0.00205593177   -2.00000000000
    -16.88197411163    0.00000000000   -2.14902768389   -2.00000000000
      0.00000000000   16.88197411163   -2.14902768389   -2.00000000000
     16.88197411163    0.00000000000   -2.14902768389   -2.00000000000
      0.00000000000  -16.88197411163   -2.14902768389   -2.00000000000
    -12.66148058373   10.55123381977   -4.27562330794   -2.00000000000
    -10.55123381977   12.66148058373   -4.27562330794   -2.00000000000
     10.55123381977   12.66148058373   -4.27562330794   -2.00000000000
     12.66148058373   10.55123381977   -4.27562330794   -2.00000000000
     12.66148058373  -10.55123381977   -4.27562330794   -2.00000000000
     10.55123381977  -12.66148058373   -4.27562330794   -2.00000000000
    -10.55123381977  -12.66148058373   -4.27562330794   -2.00000000000
    -12.66148058373  -10.55123381977   -4.27562330794   -2.00000000000
    -16.88197411163    2.10705287155   -2.14928009216    2.00000000000
     -2.10705287155   16.88197411163   -2.14928009216    2.00000000000
      2.10705287155   16.88197411163   -2.14928009216    2.00000000000
     16.88197411163    2.10705287155   -2.14928009216    2.00000000000
     16.88197411163   -2.10705287155   -2.14928009216    2.00000000000
      2.10705287155  -16.88197411163   -2.14928009216    2.00000000000
     -2.10705287155  -16.88197411163   -2.14928009216    2.00000000000
    -16.88197411163   -2.10705287155   -2.14928009216    2.00000000000
    -14.77492124009    8.44098705582   -2.14928009216    2.00000000000
     -8.44098705582   14.77492124009   -2.14928009216    2.00000000000
      8.44098705582   14.77492124009   -2.14928009216    2.00000000000
     14.77492124009    8.44098705582   -2.14928009216    2.00000000000
     14.77492124009   -8.44098705582   -2.14928009216    2.00000000000
      8.44098705582  -14.77492124009   -2.14928009216    2.00000000000
     -8.44098705582  -14.77492124009   -2.14928009216    2.00000000000
    -14.77492124009   -8.44098705582   -2.14928009216    2.00000000000
    -14.77172734768    6.33074029186   -6.38587007189   -2.00000000000
     -6.33074029186   14.77172734768   -6.38587007189   -2.00000000000
      6.33074029186   14.77172734768   -6.38587007189   -2.00000000000
     14.77172734768    6.33074029186   -6.38587007189   -2.00000000000
     14.77172734768   -6.33074029186   -6.38587007189   -2.00000000000
      6.33074029186  -14.77172734768   -6.38587007189   -2.00000000000
     -6.33074029186  -14.77172734768   -6.38587007189   -2.00000000000
    -14.77172734768   -6.33074029186   -6.38587007189   -2.00000000000
    -16.88197411163    4.22049352791   -0.05042534122    2.00000000000
     -4.22049352791   16.88197411163   -0.05042534122    2.00000000000
      4.22049352791   16.88197411163   -0.05042534122    2.00000000000
     16.88197411163    4.22049352791   -0.05042534122    2.00000000000
     16.88197411163   -4.22049352791   -0.05042534122    2.00000000000
      4.22049352791  -16.88197411163   -0.05042534122    2.00000000000
     -4.22049352791  -16.88197411163   -0.05042534122    2.00000000000
    -16.88197411163   -4.22049352791   -0.05042534122    2.00000000000
    -16.88197411163    0.00000000000   -4.27562330794    2.00000000000
      0.00000000000   16.88197411163   -4.27562330794    2.00000000000
     16.88197411163    0.00000000000   -4.27562330794    2.00000000000
      0.00000000000  -16.88197411163   -4.27562330794    2.00000000000
    -16.88197411163    4.22049352791   -2.15902521756   -2.00000000000
     -4.22049352791   16.88197411163   -2.15902521756   -2.00000000000
      4.22049352791   16.88197411163   -2.15902521756   -2.00000000000
     16.88197411163    4.22049352791   -2.15902521756   -2.00000000000
     16.88197411163   -4.22049352791   -2.15902521756   -2.00000000000
      4.22049352791  -16.88197411163   -2.15902521756   -2.00000000000
     -4.22049352791  -16.88197411163   -2.15902521756   -2.00000000000
    -16.88197411163   -4.22049352791   -2.15902521756   -2.00000000000
    -16.88197411163    2.11024676395   -4.27562330794   -2.00000000000
    -14.77172734768    8.44098705582   -4.27562330794   -2.00000000000
     -8.44098705582   14.77172734768   -4.27562330794   -2.00000000000
     -2.11024676395   16.88197411163   -4.27562330794   -2.00000000000
      2.11024676395   16.88197411163   -4.27562330794   -2.00000000000
      8.44098705582   14.77172734768   -4.27562330794   -2.00000000000
     14.77172734768    8.44098705582   -4.27562330794   -2.00000000000
     16.88197411163    2.11024676395   -4.27562330794   -2.00000000000
     16.88197411163   -2.11024676395   -4.27562330794   -2.00000000000
     14.77172734768   -8.44098705582   -4.27562330794   -2.00000000000
      8.44098705582  -14.77172734768   -4.27562330794   -2.00000000000
      2.11024676395  -16.88197411163   -4.27562330794   -2.00000000000
     -2.11024676395  -16.88197411163   -4.27562330794   -2.00000000000
     -8.44098705582  -14.77172734768   -4.27562330794   -2.00000000000
    -14.77172734768   -8.44098705582   -4.27562330794   -2.00000000000
    -16.88197411163   -2.11024676395   -4.27562330794   -2.00000000000
    -12.66148058373   10.55123381977   -6.38587007189    2.00000000000
    -10.55123381977   12.66148058373   -6.38587007189    2.00000000000
     10.55123381977   12.66148058373   -6.38587007189    2.00000000000
     12.66148058373   10.55123381977   -6.38587007189    2.00000000000
     12.66148058373  -10.55123381977   -6.38587007189    2.00000000000
     10.55123381977  -12.66148058373   -6.38587007189    2.00000000000
    -10.55123381977  -12.66148058373   -6.38587007189    2.00000000000
    -12.66148058373  -10.55123381977   -6.38587007189    2.00000000000
    -12.66148058373   12.66148058373   -0.04765173215    2.00000000000
     12.66148058373   12.66148058373   -0.04765173215    2.00000000000
     12.66148058373  -12.66148058373   -0.04765173215    2.00000000000
    -12.66148058373  -12.66148058373   -0.04765173215    2.00000000000
    -16.88197411163    4.22049352791   -4.27562330794    2.00000000000
     -4.22049352791   16.88197411163   -4.27562330794    2.00000000000
      4.22049352791   16.88197411163   -4.27562330794    2.00000000000
     16.88197411163    4.22049352791   -4.27562330794    2.00000000000
     16.88197411163   -4.22049352791   -4.27562330794    2.00000000000
      4.22049352791  -16.88197411163   -4.27562330794    2.00000000000
     -4.22049352791  -16.88197411163   -4.27562330794    2.00000000000
    -16.88197411163   -4.22049352791   -4.27562330794    2.00000000000
    -16.88197411163    6.32080279923   -0.00205593177   -2.00000000000
     -6.32080279923   16.88197411163   -0.00205593177   -2.00000000000
      6.32080279923   16.88197411163   -0.00205593177   -2.00000000000
     16.88197411163    6.32080279923   -0.00205593177   -2.00000000000
     16.88197411163   -6.32080279923   -0.00205593177   -2.00000000000
      6.32080279923  -16.88197411163   -0.00205593177   -2.00000000000
     -6.32080279923  -16.88197411163   -0.00205593177   -2.00000000000
    -16.88197411163   -6.32080279923   -0.00205593177   -2.00000000000
    -12.66148058373   12.66148058373   -2.15801787533   -2.00000000000
     12.66148058373   12.66148058373   -2.15801787533   -2.00000000000
     12.66148058373  -12.66148058373   -2.15801787533   -2.00000000000
    -12.66148058373  -12.66148058373   -2.15801787533   -2.00000000000
    -16.88197411163    0.00000000000   -6.38587007189   -2.00000000000
      0.00000000000   16.88197411163   -6.38587007189   -2.00000000000
     16.88197411163    0.00000000000   -6.38587007189   -2.00000000000
      0.00000000000  -16.88197411163   -6.38587007189   -2.00000000000
    -14.77053148910   10.55242967836   -0.05140086690    2.00000000000
    -10.55242967836   14.77053148910   -0.05140086690    2.00000000000
     10.55242967836   14.77053148910   -0.05140086690    2.00000000000
     14.77053148910   10.55242967836   -0.05140086690    2.00000000000
     14.77053148910  -10.55242967836   -0.05140086690    2.00000000000
     10.55242967836  -14.77053148910   -0.05140086690    2.00000000000
    -10.55242967836  -14.77053148910   -0.05140086690    2.00000000000
    -14.77053148910  -10.55242967836   -0.05140086690    2.00000000000
    -16.88197411163    6.33393418427   -2.14928009216    2.00000000000
     -6.33393418427   16.88197411163   -2.14928009216    2.00000000000
      6.33393418427   16.88197411163   -2.14928009216    2.00000000000
     16.88197411163    6.33393418427   -2.14928009216    2.00000000000
     16.88197411163   -6.33393418427   -2.14928009216    2.00000000000
      6.33393418427  -16.88197411163   -2.14928009216    2.00000000000
     -6.33393418427  -16.88197411163   -2.14928009216    2.00000000000
    -16.88197411163   -6.33393418427   -2.14928009216    2.00000000000
    -16.88197411163    2.11024676395   -6.38587007189    2.00000000000
    -14.77172734768    8.44098705582   -6.38587007189    2.00000000000
     -8.44098705582   14.77172734768   -6.38587007189    2.00000000000
     -2.11024676395   16.88197411163   -6.38587007189    2.00000000000
      2.11024676395   16.88197411163   -6.38587007189    2.00000000000
      8.44098705582   14.77172734768   -6.38587007189    2.00000000000
     14.77172734768    8.44098705582   -6.38587007189    2.00000000000
     16.88197411163    2.11024676395   -6.38587007189    2.00000000000
     16.88197411163   -2.11024676395   -6.38587007189    2.00000000000
     14.77172734768   -8.44098705582   -6.38587007189    2.00000000000
      8.44098705582  -14.77172734768   -6.38587007189    2.00000000000
      2.11024676395  -16.88197411163   -6.38587007189    2.00000000000
     -2.11024676395  -16.88197411163   -6.38587007189    2.00000000000
     -8.44098705582  -14.77172734768   -6.38587007189    2.00000000000
    -14.77172734768   -8.44098705582   -6.38587007189    2.00000000000
    -16.88197411163   -2.11024676395   -6.38587007189    2.00000000000
    -14.77126959714   10.55169157031   -2.15696791928   -2.00000000000
    -10.55169157031   14.77126959714   -2.15696791928   -2.00000000000
     10.55169157031   14.77126959714   -2.15696791928   -2.00000000000
     14.77126959714   10.55169157031   -2.15696791928   -2.00000000000
     14.77126959714  -10.55169157031   -2.15696791928   -2.00000000000
     10.55169157031  -14.77126959714   -2.15696791928   -2.00000000000
    -10.55169157031  -14.77126959714   -2.15696791928   -2.00000000000
    -14.77126959714  -10.55169157031   -2.15696791928   -2.00000000000
    -12.66148058373   12.66148058373   -4.27562330794    2.00000000000
     12.66148058373   12.66148058373   -4.27562330794    2.00000000000
     12.66148058373  -12.66148058373   -4.27562330794    2.00000000000
    -12.66148058373  -12.66148058373   -4.27562330794    2.00000000000
    -16.88197411163    6.33074029186   -4.27562330794   -2.00000000000
     -6.33074029186   16.88197411163   -4.27562330794   -2.00000000000
      6.33074029186   16.88197411163   -4.27562330794   -2.00000000000
     16.88197411163    6.33074029186   -4.27562330794   -2.00000000000
     16.88197411163   -6.33074029186   -4.27562330794   -2.00000000000
      6.33074029186  -16.88197411163   -4.27562330794   -2.00000000000
     -6.33074029186  -16.88197411163   -4.27562330794   -2.00000000000
    -16.88197411163   -6.33074029186   -4.27562330794   -2.00000000000
    -16.88197411163    4.22049352791   -6.38587007189   -2.00000000000
     -4.22049352791   16.88197411163   -6.38587007189   -2.00000000000
      4.22049352791   16.88197411163   -6.38587007189   -2.00000000000
     16.88197411163    4.22049352791   -6.38587007189   -2.00000000000
     16.88197411163   -4.22049352791   -6.38587007189   -2.00000000000
      4.22049352791  -16.88197411163   -6.38587007189   -2.00000000000
     -4.22049352791  -16.88197411163   -6.38587007189   -2.00000000000
    -16.88197411163   -4.22049352791   -6.38587007189   -2.00000000000
    -14.77172734768   10.55123381977   -4.27562330794    2.00000000000
    -10.55123381977   14.77172734768   -4.27562330794    2.00000000000
     10.55123381977   14.77172734768   -4.27562330794    2.00000000000
     14.77172734768   10.55123381977   -4.27562330794    2.00000000000
     14.77172734768  -10.55123381977   -4.27562330794    2.00000000000
     10.55123381977  -14.77172734768   -4.27562330794    2.00000000000
    -10.55123381977  -14.77172734768   -4.27562330794    2.00000000000
    -14.77172734768  -10.55123381977   -4.27562330794    2.00000000000
    -16.88197411163    8.44098705582   -0.00772802266    2.00000000000
     -8.44098705582   16.88197411163   -0.00772802266    2.00000000000
      8.44098705582   16.88197411163   -0.00772802266    2.00000000000
     16.88197411163    8.44098705582   -0.00772802266    2.00000000000
     16.88197411163   -8.44098705582   -0.00772802266    2.00000000000
      8.44098705582  -16.88197411163   -0.00772802266    2.00000000000
     -8.44098705582  -16.88197411163   -0.00772802266    2.00000000000
    -16.88197411163   -8.44098705582   -0.00772802266    2.00000000000
    -16.88197411163    8.44098705582   -2.14902768389   -2.00000000000
     -8.44098705582   16.88197411163   -2.14902768389   -2.00000000000
      8.44098705582   16.88197411163   -2.14902768389   -2.00000000000
     16.88197411163    8.44098705582   -2.14902768389   -2.00000000000
     16.88197411163   -8.44098705582   -2.14902768389   -2.00000000000
      8.44098705582  -16.88197411163   -2.14902768389   -2.00000000000
     -8.44098705582  -16.88197411163   -2.14902768389   -2.00000000000
    -16.88197411163   -8.44098705582   -2.14902768389   -2.00000000000
    -19.00215836822    0.00000000000   -0.00205593177   -2.00000000000
      0.00000000000   19.00215836822   -0.00205593177   -2.00000000000
     19.00215836822    0.00000000000   -0.00205593177   -2.00000000000
      0.00000000000  -19.00215836822   -0.00205593177   -2.00000000000
    -12.66148058373   12.66148058373   -6.38587007189   -2.00000000000
     12.66148058373   12.66148058373   -6.38587007189   -2.00000000000
     12.66148058373  -12.66148058373   -6.38587007189   -2.00000000000
    -12.66148058373  -12.66148058373   -6.38587007189   -2.00000000000
    -18.98902698318    0.00000000000   -2.14928009216    2.00000000000
      0.00000000000   18.98902698318   -2.14928009216    2.00000000000
     18.98902698318    0.00000000000   -2.14928009216    2.00000000000
      0.00000000000  -18.98902698318   -2.14928009216    2.00000000000
    -18.99341673417    2.11144262254   -0.05140086690    2.00000000000
     -2.11144262254   18.99341673417   -0.05140086690    2.00000000000
      2.11144262254   18.99341673417   -0.05140086690    2.00000000000
     18.99341673417    2.11144262254   -0.05140086690    2.00000000000
     18.99341673417   -2.11144262254   -0.05140086690    2.00000000000
      2.11144262254  -18.99341673417   -0.05140086690    2.00000000000
     -2.11144262254  -18.99341673417   -0.05140086690    2.00000000000
    -18.99341673417   -2.11144262254   -0.05140086690    2.00000000000
    -16.88197411163    6.33074029186   -6.38587007189    2.00000000000
     -6.33074029186   16.88197411163   -6.38587007189    2.00000000000
      6.33074029186   16.88197411163   -6.38587007189    2.00000000000
     16.88197411163    6.33074029186   -6.38587007189    2.00000000000
     16.88197411163   -6.33074029186   -6.38587007189    2.00000000000
      6.33074029186  -16.88197411163   -6.38587007189    2.00000000000
     -6.33074029186  -16.88197411163   -6.38587007189    2.00000000000
    -16.88197411163   -6.33074029186   -6.38587007189    2.00000000000
    -18.99267862613    2.11070451449   -2.15696791928   -2.00000000000
     -2.11070451449   18.99267862613   -2.15696791928   -2.00000000000
      2.11070451449   18.99267862613   -2.15696791928   -2.00000000000
     18.99267862613    2.11070451449   -2.15696791928   -2.00000000000
     18.99267862613   -2.11070451449   -2.15696791928   -2.00000000000
      2.11070451449  -18.99267862613   -2.15696791928   -2.00000000000
     -2.11070451449  -18.99267862613   -2.15696791928   -2.00000000000
    -18.99267862613   -2.11070451449   -2.15696791928   -2.00000000000
    -14.77172734768   10.55123381977   -6.38587007189   -2.00000000000
    -10.55123381977   14.77172734768   -6.38587007189   -2.00000000000
     10.55123381977   14.77172734768   -6.38587007189   -2.00000000000
     14.77172734768   10.55123381977   -6.38587007189   -2.00000000000
     14.77172734768  -10.55123381977   -6.38587007189   -2.00000000000
     10.55123381977  -14.77172734768   -6.38587007189   -2.00000000000
    -10.55123381977  -14.77172734768   -6.38587007189   -2.00000000000
    -14.77172734768  -10.55123381977   -6.38587007189   -2.00000000000
    -16.88197411163    8.44098705582   -4.27562330794    2.00000000000
     -8.44098705582   16.88197411163   -4.27562330794    2.00000000000
      8.44098705582   16.88197411163   -4.27562330794    2.00000000000
     16.88197411163    8.44098705582   -4.27562330794    2.00000000000
     16.88197411163   -8.44098705582   -4.27562330794    2.00000000000
      8.44098705582  -16.88197411163   -4.27562330794    2.00000000000
     -8.44098705582  -16.88197411163   -4.27562330794    2.00000000000
    -16.88197411163   -8.44098705582   -4.27562330794    2.00000000000
    -14.76988271440   12.66148058373    0.00000000000   -2.00000000000
    -12.66148058373   14.76988271440    0.00000000000   -2.00000000000
     12.66148058373   14.76988271440    0.00000000000   -2.00000000000
     14.76988271440   12.66148058373    0.00000000000   -2.00000000000
     14.76988271440  -12.66148058373    0.00000000000   -2.00000000000
     12.66148058373  -14.76988271440    0.00000000000   -2.00000000000
    -12.66148058373  -14.76988271440    0.00000000000   -2.00000000000
    -14.76988271440  -12.66148058373    0.00000000000   -2.00000000000
    -18.99406550886    4.22049352791    0.00000000000   -2.00000000000
[...]
 
 Calculation of (T) correction...
 
 Laplace threshold, nquadmin:  1.00E-03   4
 Number of quadrature points:    4
 
     3967.61 MB memory is utilized for (T)

 0%       25%       50%       75%       100%
 |---------|---------|---------|---------| 
 
 (T) correction [au]:                   -0.001969596751
 CCSD(T) correlation energy [au]:       -0.060947361058
 
 CPU time [min]:  5676.392                   Wall time [min]:   199.959
 
 MO:    86
 Number of atoms in domain:      24
 Number of atomic orbitals:     572
 Number of atoms for local DF:   24
 Number of fitting functions:  1953 (100.00%)
 Number of occupied orbitals:    88
 Number of virtual  orbitals:   462
 Number of Cholesky vectors:      7
 MP2 energy in ED [au]:          -0.056105820761
 Number of occupied LNOs:        56  (63.64%)
 Number of virtual  LNOs:       149  (32.25%)
 tol*100>norm                    49  2.147078807442636E-005
 tol*100>norm                    55  1.615569150381311E-005
 tol*100>norm                    56  1.881822051372607E-005
 tol*100>norm                    57  1.859859402319230E-005
 tol*100>norm                   191  1.801376113886399E-005
 tol*100>norm                   197  1.508730990600498E-005
 tol*100>norm                   198  1.708684724549035E-005
 tol*100>norm                   199  1.729952450696110E-005
 tol*100>norm                   218  1.801567773553420E-005
 tol*100>norm                   224  1.508803888628128E-005
 tol*100>norm                   225  1.708727589014124E-005
 tol*100>norm                   226  1.729294622151460E-005
 tol*100>norm                   245  1.801195757680689E-005
 tol*100>norm                   251  1.508874084385668E-005
 tol*100>norm                   252  1.708712163070521E-005
 tol*100>norm                   253  1.729690200216606E-005
 tol*100>norm                   272  1.801830684819188E-005
 tol*100>norm                   278  1.508727832295875E-005
 tol*100>norm                   279  1.708749948213303E-005
 tol*100>norm                   280  1.729528701928529E-005
 small norm                    49  2.147078807442636E-005
 small norm                    55  1.615569150381311E-005
 small norm                    56  1.881822051372606E-005
 small norm                    57  1.859859402319228E-005
 small norm                   191  1.801376113886399E-005
 small norm                   197  1.508730990600498E-005
 small norm                   198  1.708684724549034E-005
 small norm                   199  1.729952450696110E-005
 small norm                   218  1.801567773553420E-005
 small norm                   224  1.508803888628129E-005
 small norm                   225  1.708727589014123E-005
 small norm                   226  1.729294622151460E-005
 small norm                   245  1.801195757680689E-005
 small norm                   251  1.508874084385667E-005
 small norm                   252  1.708712163070519E-005
 small norm                   253  1.729690200216605E-005
 small norm                   272  1.801830684819189E-005
 small norm                   278  1.508727832295874E-005
 small norm                   279  1.708749948213303E-005
 small norm                   280  1.729528701928528E-005
 Number of Cholesky vectors:      5
 MP2 energy in LIS [au]:         -0.056022902674
 Correction for frozen LNO [au]: -0.000082918087     (0.148%)
 Number of NAFs:                853  (43.68%)
 CPU time [min]:  5697.448                   Wall time [min]:   200.677
 

 Direct DF-CCSD(T) calculation
 
 Convergence criterion:  1.0E-05
 
 Number of occupied/virtual/auxiliary orbitals:    56   149   853
   1573.81 MB is the minimal memory requirement for (T)
   1171.01 MB is the minimal memory requirement for CCSD
 
 MP2 correlation energy [au]:       -1.689144201823
 
 LMP2 domain correlation energy contribution [au]:       -0.056023060499
 
 CPU time [min]:  5698.176                   Wall time [min]:   200.788
 
 
 Starting CCSD iterations...
 
                     Residual norm       Correlation Energy
 Iteration  1        0.270495712138       -1.670934747501
 Iteration  2        0.082280095258       -1.706994279087
 Iteration  3        0.030282470905       -1.715196419145
 Iteration  4        0.005728156863       -1.715182739397
 Iteration  5        0.001837314907       -1.715138836120
 Iteration  6        0.000483595975       -1.715173649071
 Iteration  7        0.000182985950       -1.715169573072
 Iteration  8        0.000059368804       -1.715164329024
 
 CCSD iteration has converged in  8 steps.
     2973.98 MB memory was utilized by CCSD
 
 T1 diagnostic:      1.104E-02            D1 diagnostic:      4.554E-02
 
 T1 contribution [au]:                         0.000000000000
 CCSD correlation energy [au]:                -0.056447998620
 
 CPU time [min]:  5762.153                   Wall time [min]:   203.376
 
 Calculation of (T) correction...
 
 Laplace threshold, nquadmin:  1.00E-03   4
 Number of quadrature points:    4
 
     3285.46 MB memory is utilized for (T)

 0%       25%       50%       75%       100%
 |---------|---------|---------|---------| 
 
 (T) correction [au]:                   -0.001513699122
 CCSD(T) correlation energy [au]:       -0.057961697742
 
 CPU time [min]:  5836.008                   Wall time [min]:   205.591
 
 MO:    87
 Number of atoms in domain:      24
 Number of atomic orbitals:     572
 Number of atoms for local DF:   24
 Number of fitting functions:  1953 (100.00%)
 Number of occupied orbitals:    88
 Number of virtual  orbitals:   462
 Number of Cholesky vectors:      7
 MP2 energy in ED [au]:          -0.056105891729
 Number of occupied LNOs:        55  (62.50%)
 Number of virtual  LNOs:       146  (31.60%)
 tol*100>norm                    49  2.147078807442678E-005
 tol*100>norm                    55  1.615569150381327E-005
 tol*100>norm                    56  1.881822051372611E-005
 tol*100>norm                    57  1.859859402319244E-005
 tol*100>norm                   191  1.801376113886400E-005
 tol*100>norm                   197  1.508730990600498E-005
 tol*100>norm                   198  1.708684724549026E-005
 tol*100>norm                   199  1.729952450696106E-005
 tol*100>norm                   218  1.801567773553419E-005
 tol*100>norm                   224  1.508803888628129E-005
 tol*100>norm                   225  1.708727589014122E-005
 tol*100>norm                   226  1.729294622151459E-005
 tol*100>norm                   245  1.801195757680676E-005
 tol*100>norm                   251  1.508874084385668E-005
 tol*100>norm                   252  1.708712163070525E-005
 tol*100>norm                   253  1.729690200216605E-005
 tol*100>norm                   272  1.801830684819204E-005
 tol*100>norm                   278  1.508727832295873E-005
 tol*100>norm                   279  1.708749948213304E-005
 tol*100>norm                   280  1.729528701928528E-005
 small norm                    49  2.147078807442676E-005
 small norm                    55  1.615569150381327E-005
 small norm                    56  1.881822051372608E-005
 small norm                    57  1.859859402319242E-005
 small norm                   191  1.801376113886400E-005
 small norm                   197  1.508730990600498E-005
 small norm                   198  1.708684724549026E-005
 small norm                   199  1.729952450696106E-005
 small norm                   218  1.801567773553420E-005
 small norm                   224  1.508803888628130E-005
 small norm                   225  1.708727589014123E-005
 small norm                   226  1.729294622151458E-005
 small norm                   245  1.801195757680676E-005
 small norm                   251  1.508874084385668E-005
 small norm                   252  1.708712163070524E-005
 small norm                   253  1.729690200216603E-005
 small norm                   272  1.801830684819205E-005
 small norm                   278  1.508727832295872E-005
 small norm                   279  1.708749948213303E-005
 small norm                   280  1.729528701928527E-005
 Number of Cholesky vectors:      6
 MP2 energy in LIS [au]:         -0.056022442241
 Correction for frozen LNO [au]: -0.000083449487     (0.149%)
 Number of NAFs:                846  (43.32%)
 CPU time [min]:  5856.642                   Wall time [min]:   206.299
 

 Direct DF-CCSD(T) calculation
 
 Convergence criterion:  1.0E-05
 
 Number of occupied/virtual/auxiliary orbitals:    55   146   846
   1477.83 MB is the minimal memory requirement for (T)
   1100.53 MB is the minimal memory requirement for CCSD
 
 MP2 correlation energy [au]:       -1.629345096588
 
 LMP2 domain correlation energy contribution [au]:       -0.056022333741
 
 CPU time [min]:  5857.367                   Wall time [min]:   206.402
 
 
 Starting CCSD iterations...
 
                     Residual norm       Correlation Energy
 Iteration  1        0.264481822289       -1.611984016295
 Iteration  2        0.080338622009       -1.646872958440
 Iteration  3        0.029361910551       -1.654540036245
 Iteration  4        0.005643713013       -1.654571883955
 Iteration  5        0.001781709558       -1.654537353935
 Iteration  6        0.000469013105       -1.654565416967
 Iteration  7        0.000172995609       -1.654561612567
 Iteration  8        0.000054547951       -1.654557206513
 
 CCSD iteration has converged in  8 steps.
     2758.64 MB memory was utilized by CCSD
 
 T1 diagnostic:      1.109E-02            D1 diagnostic:      4.497E-02
 
 T1 contribution [au]:                         0.000000000000
 CCSD correlation energy [au]:                -0.056447994817
 
 CPU time [min]:  5915.505                   Wall time [min]:   208.756
 
 Calculation of (T) correction...
 
 Laplace threshold, nquadmin:  1.00E-03   4
 Number of quadrature points:    4
 
     3054.90 MB memory is utilized for (T)

 0%       25%       50%       75%       100%
 |---------|---------|---------|---------| 
 
 (T) correction [au]:                   -0.001511190504
 CCSD(T) correlation energy [au]:       -0.057959185321
 
 CPU time [min]:  5981.099                   Wall time [min]:   210.699
 
 MO:    88
 Number of atoms in domain:      24
 Number of atomic orbitals:     572
 Number of atoms for local DF:   24
 Number of fitting functions:  1953 (100.00%)
 Number of occupied orbitals:    82
 Number of virtual  orbitals:   462
 Number of Cholesky vectors:      7
 MP2 energy in ED [au]:          -0.060180207877
 Number of occupied LNOs:        57  (69.51%)
 Number of virtual  LNOs:       171  (37.01%)
 tol*100>norm                    49  2.153298359799104E-005
 tol*100>norm                    55  1.615874502078368E-005
 tol*100>norm                    56  1.883871304812181E-005
 tol*100>norm                    57  1.863149546269445E-005
 tol*100>norm                   245  1.801599369553333E-005
 tol*100>norm                   251  1.511551170835655E-005
 tol*100>norm                   252  1.710619966672635E-005
 tol*100>norm                   253  1.731107396117793E-005
 tol*100>norm                   272  1.802234611304861E-005
 tol*100>norm                   278  1.511400472681139E-005
 tol*100>norm                   279  1.710657916102617E-005
 tol*100>norm                   280  1.730945246539786E-005
 small norm                    49  2.153298359799103E-005
 small norm                    55  1.615874502078367E-005
 small norm                    56  1.883871304812179E-005
 small norm                    57  1.863149546269446E-005
 small norm                   245  1.801599369553334E-005
 small norm                   251  1.511551170835656E-005
 small norm                   252  1.710619966672635E-005
 small norm                   253  1.731107396117792E-005
 small norm                   272  1.802234611304861E-005
 small norm                   278  1.511400472681138E-005
 small norm                   279  1.710657916102617E-005
 small norm                   280  1.730945246539787E-005
 Number of Cholesky vectors:      6
 MP2 energy in LIS [au]:         -0.060102930410
 Correction for frozen LNO [au]: -0.000077277467     (0.128%)
 Number of NAFs:                921  (47.16%)
 CPU time [min]:  6003.549                   Wall time [min]:   211.465
 

 Direct DF-CCSD(T) calculation
 
 Convergence criterion:  1.0E-05
 
 Number of occupied/virtual/auxiliary orbitals:    57   171   921
   2148.34 MB is the minimal memory requirement for (T)
   1563.21 MB is the minimal memory requirement for CCSD
 
 MP2 correlation energy [au]:       -1.783805219083
 
 LMP2 domain correlation energy contribution [au]:       -0.060102703143
 
 CPU time [min]:  6004.399                   Wall time [min]:   211.620
 
 
 Starting CCSD iterations...
 
                     Residual norm       Correlation Energy
 Iteration  1        0.292734052187       -1.773390742663
 Iteration  2        0.087475353774       -1.811689094175
 Iteration  3        0.031859438396       -1.820276970781
 Iteration  4        0.007635752008       -1.820323822054
 Iteration  5        0.002517180648       -1.820209424907
 Iteration  6        0.000758294690       -1.820251375396
 Iteration  7        0.000307805034       -1.820246228898
 Iteration  8        0.000102986965       -1.820237439691
 Iteration  9        0.000037422395       -1.820236596724
 
 CCSD iteration has converged in  9 steps.
     4743.35 MB memory was utilized by CCSD
 
 T1 diagnostic:      1.172E-02            D1 diagnostic:      4.779E-02
 
 T1 contribution [au]:                         0.000000000000
 CCSD correlation energy [au]:                -0.059963390433
 
 CPU time [min]:  6111.903                   Wall time [min]:   215.978
 
 Calculation of (T) correction...
 
 Laplace threshold, nquadmin:  1.00E-03   4
 Number of quadrature points:    4
 
     4715.09 MB memory is utilized for (T)

 0%       25%       50%       75%       100%
 |---------|---------|---------|---------| 
 
 (T) correction [au]:                   -0.002028820302
 CCSD(T) correlation energy [au]:       -0.061992210735
 
 CPU time [min]:  6256.698                   Wall time [min]:   220.272
 
 **********************************************************************
 Dimensions of the extended domains:    Minimum / Average / Maximum
 
 Number of atoms in domain:                  24      24.0        24
 Number of atomic orbitals:                 572     572.0       572
 Number of fitting functions:              1665    1854.8      1953
 Number of occupied localized MOs:           28      53.1        88
 Number of PAOs:                            442     455.9       462
 Number of occupied LNOs:                    19      35.8        60
 Number of virtual  LNOs:                    54     104.8       171
 Number of NAFs:                            316     566.4       938
 
 **********************************************************************
 Distant (and weak) pair contributions, corrections
 
 Sum of pair energies [au]:                    -0.000603306887    (0.014%)
 Sum of energy corrections [au]:               -0.004485901251    (0.101%)
 Pair energies + LNO corrections [au]:         -0.005089208138
 Sum of LMP2 contributions [au]:               -4.435716033780
 
 **********************************************************************
  Time of manipulations in the EDs:      max CPU/Wall [s]  all CPU/Wall [min]
 
 PD construction & multipole pair E     630.64    18.89    10.51     0.31
 Construct MO basis of the ED            23.78     1.20    16.13     0.59
 (mu,nu|P) evaluation & trf 2 (ai|P)    399.35    11.18   369.18    10.32
 Evaluate MP2 energy of the ED           50.00     1.39    41.35     1.15
 Transformations to the LNO basis        49.26     1.58    29.05     0.86
 Build W_PQ (Jai or Jpi part)             7.67     0.57     3.59     0.11
 Evaluate MP2 energy of the LIS           4.68     0.13     2.25     0.06
 (mu,nu|P) evaluation & trf 2 J(abQ)    823.89    31.01   694.18    29.05
 Total of the above for all EDs        1358.62    47.07  1155.74    42.15
 
 **********************************************************************
 Maximum memory requirement [MB]:       
 
 PD construction & multipole pair E         38.3
 AO integral evaluation in the EDs         282.5
 (mu,nu|P) evaluation & trf 2 (aI|P)      2395.3
 Evaluate MP2 energy in the EDs           1607.2
 Transformation to the LNO basis           895.2
 (mu,nu|P) to Jab transformation           877.1
 Evaluate MP2 energy in the LIS            887.0
 Minimum requirement for LIS CCSD         1563.2
 Actually allocated  for LIS CCSD         4743.4
 Minimum requirement for LIS (T)          2148.4
 Actually allocated  for LIS (T)          4715.1
 
 ======================================================================
 ======================================================================
 
 
 
 ======================================================================
 ======================================================================
 
 Final local CC results:
 
 Minimum number of correlated electrons:        38       ( 21.6%)
 Maximum number of correlated electrons:       120       ( 68.2%)
 Average number of correlated electrons:        71.5     ( 40.7%)
 Minimum number of correlated orbitals:         73       ( 13.3%)
 Maximum number of correlated orbitals:        228       ( 41.5%)
 Average number of correlated orbitals:        140.6     ( 25.6%)
 
 CPU time for integral calculations [min]:                  3.633
 Wall time for integral calculations [min]:                 0.795
 
 CPU time for SCF calculation [min]:                       73.490
 Wall time for SCF calculation [min]:                       2.098
 
 CPU time for orbital localization [min]:                   0.365
 Wall time for orbital localization [min]:                  0.127
 
 CPU time for integral transformations [min]:            1212.327
 Wall time for integral transformations [min]:             44.015
 
 Reference energy [au]:                                -11578.077727042752
 
 LMP2 correlation energy [au]:                             -4.435716033780
 Total LMP2 energy [au]:                               -11582.513443076532
 
 Total MP2 correction for dropped NAFs [au]:               -0.000072369042
 Total MP2 correction [au]:                                -0.005161577180
 
 CPU time for CCSD calculations [min]:                   2322.926
 Total CPU time for CCSD [min]:                          3612.742
 Wall time for CCSD calculations [min]:                    95.337
 Total wall time for CCSD [min]:                          142.373
 
 CCSD correlation energy [au]:                             -4.463004882623
 Total CCSD energy [au]:                               -11582.540731925375
 CCSD correlation energy + 0.5 MP2 corrections [au]:       -4.465585671213
 Total LNO-CCSD energy with MP2 corrections [au]:      -11582.543312713964
 
 CPU time for (T) corrections [min]:                     2721.471
 Total CPU time for CCSD(T) [min]:                       6334.212
 Wall time for (T) corrections [min]:                      80.922
 Total wall time for CCSD(T) [min]:                       223.295
 
 Total (T) correlation energy contribution [au]:           -0.114520823792
 Total (T) correlation energy+0.5 MP2 correction [au]:     -0.117101612382
 CCSD(T) correlation energy [au]:                          -4.577525706416
 Total CCSD(T) energy [au]:                            -11582.655252749168
 CCSD(T) correlation energy + MP2 corrections [au]:        -4.582687283595
 Total LNO-CCSD(T) energy with MP2 corrections [au]:   -11582.660414326347
 
 ======================================================================
 ======================================================================
 
 ************************ 2023-06-13 17:14:49 *************************
                      Normal termination of mrcc.
 **********************************************************************
