 **********************************************************************
                          MRCC program system
 **********************************************************************
 
                              Written by
     Mihaly Kallay, Peter R. Nagy, David Mester, Laszlo Gyevi-Nagy,
        Jozsef Csoka, P. Bernat Szabo, Zoltan Rolik, Gyula Samu,
     Jozsef Csontos, Bence Hegely, Adam Ganyecz, Istvan Ladjanszki,
       Lorant Szegedy, Bence Ladoczki, Klara Petrov, Mate Farkas,
                    Pal D. Mezei, and Reka A. Horvath
 
        Department of Physical Chemistry and Materials Science
            Budapest University of Technology and Economics
                  Budapest P.O.Box 91, H-1521 Hungary
 
                              www.mrcc.hu
 
                      Release date: March 18, 2022

 ************************ 2023-04-26 04:14:03 *************************
 Executing minp...

 Reading input from MINP...
 
 Input file:
 
calc=DF-MP2
scftype=rhf
verbosity=3
mem=200GB
symm=off
unit=angs
scfiguess=small
scfmaxit=1000
scfalg=locfit1



charge=0
core=2

basis=special
aug-cc-pVDZ
aug-cc-pVDZ
cc-pVDZ
aug-cc-pVDZ
aug-cc-pVDZ
aug-cc-pVDZ
aug-cc-pVDZ
aug-cc-pVDZ

basis_sm=special
def2-SVP
def2-SVP
def2-SVP
def2-SVP
def2-SVP
def2-SVP
def2-SVP
def2-SVP

dfbasis_scf=special
def2-QZVPP-RI-JK
def2-QZVPP-RI-JK
def2-QZVPP-RI-JK
def2-QZVPP-RI-JK
def2-QZVPP-RI-JK
def2-QZVPP-RI-JK
def2-QZVPP-RI-JK
def2-QZVPP-RI-JK

dfbasis_cor=special
aug-cc-pVDZ-RI
aug-cc-pVDZ-RI
cc-pVDZ-RI
aug-cc-pVDZ-RI
aug-cc-pVDZ-RI
aug-cc-pVDZ-RI
aug-cc-pVDZ-RI
aug-cc-pVDZ-RI

ecp=special
none
none
none
none
none
none
none
none

unit=angs
geom=xyz
8
C1 O1 Mg1 O5 ECP25
C     0.00000000000    0.00000000000    2.43329433571
O     0.00000000000    0.00000000000    3.58011415037
Mg    0.00000000000    0.00000000000   -0.00772802266
O    -2.12018425659    0.00000000000   -0.00205593177
O     0.00000000000    2.12018425659   -0.00205593177
O     2.12018425659    0.00000000000   -0.00205593177
O     0.00000000000   -2.12018425659   -0.00205593177
O     0.00000000000    0.00000000000   -2.14902768389

ghost=serialno
3-8

 
 
 Checking keyword combinations...
 
 Keywords:
 
 active=none
 agrid=ld0006-ld0590
 agrid_pssp=ld0006-ld0194
 agrid_pssp_sm=ld0006-ld0074
 basis=special
 basis_sm=special
 basopt=off
 bfbasis=none
 bfgsmem=10
 bfgstol=1.0d-3
 bpcompo=0.985
 bpcompv=0.98
 bpdfo=0.985
 bpocc=0.985
 bppdo=0.985
 bppdv=0.98
 bpedo=0.985
 bpedv=0.98
 calc=mp2
 ccmaxit=50
 ccprog=mrcc
 ccsdalg=disk
 ccsdmkl=seq
 ccsdrest=off
 ccsdthreads=2
 cctol=6
 charge=0
 cialg=disk
 ciguess=off
 cmpgrp=auto
 comprest=off
 core=2
 corembed=off
 csapprox=off
 cvs=off
 dboc=off
 delocsomofact=
 dendec=cholesky
 dens=0
 dfalg=lineq
 dfbasis_cab=none
 dfbasis_cor=special
 dfbasis_scf=special
 dfbasis_scf_sm=special
 dfintran=drpa
 dft=off
 dhexc=adc(2)
 diag=david
 docc=
 domrad=10.d0
 drpaalg=fit
 dual=off
 dual_df=off
 ecp=special
 edisp=off
 edisp_embed=off
 embed=off
 etemp=300
 epert=none
 eps=
 espcharge=off
 excrad=1.0
 excrad_fin=0.100000000D-02
 fitting=coulomb
 fmm=off
 fmmord=8
 freq=off
 gamma=1.d0
 gauss=spher
 geom=xyz
 gopt=off
 ghost=serialno
 gtol=7
 grdens=off
 gridbatch_cos=2000
 grtol=10
 guido_ct=off
 hamilton=dc
 iface=none
 intalg=auto
 itol=10
 laptol=1.d-2
 lccoporder=trffirst
 lcorthr=normal
 lccrest=off
 lmp2dens=on
 lnoepso=0.d0
 lnoepsv=1e-6
 boysalg=jacobi
 localcc=off
 localcorrsymm=off
 locintrf=disk
 mact=
 maxact=off
 maxdim=100
 maxex=0
 maxmicroit=100
 mcscfiguess=hf
 mem=200gb
 mmprog=
 molden=on
 mpitasks=1
 mulmet=0
 mult=
 nacto=0
 nactv=0
 naf_amp=1.d-2
 naf_cor=off
 naf_scf=off
 nafalg=albe
 naftyp=
 nchol=auto
 ndeps=1e-3
 nstate=1
 nsing=0
 nto=off
 ntrip=0
 occ=
 occri=off
 oniom=off
 oniom_eechg=off
 oniom_pcm=off
 oniom_qcorr=off
 optalg=
 optmaxit=50
 optetol=1e-6
 optex=0
 optgtol=1e-4
 optstol=1e-3
 orblocc=off
 orbloce=off
 orbloco=off
 orblocv=off
 orblocguess=cholesky
 osveps=1e-3
 ovirt=off
 ovltol=1e-7
 ovosnorb=80.0
 pcm=off
 popul=off
 pressure=100000
 pssp=off
 ptfreq=0.0
 ptthreads=2
 qro=off
 qscf=off
 qmmm=off
 redcost_exc=off
 redcost_tddft=off
 refdet=none
 rest=0
 rgrid=log3
 rism=off
 rohfcore=semicanonical
 rohftype=semicanonical
 scfalg=locfit1
 scf_conv=auto
 scfdamp=0.0d0
 scfdamp_mode=off
 scfdamp_end=1000
 scfdamp_dampstep=0.d0
 scfdamp_dtol=0.0d0
 scfdamp_maxfact=0.0d0
 scfdamp_minfact=0.0d0
 scfdiis=on
 scfdiis_dtol=0.0d0
 scfdiis_end=1000
 scfdiis_start=2
 scfdiis_step=1
 scfdiis_watch=off
 scfdiis_wrange=10
 scfdiis_wlimit=5
 scfdiis_delmax=2
 scfdtol=7
 scfext=10
 scfguessdens=
 scfiguess=small
 scfloc=pm
 scflshift=0.20
 scflshift_end=8
 scflshift_dtol=0.0
 scflshift_gaptol=0.20
 scfmaxit=1000
 scftype=rhf
 scftol=6
 scspe=1.d0
 scsph=1.d0
 scsps=1.2d0
 scsps_t=1.2d0
 scspt=0.33333333333333
 scspt_t=0.33333333333333
 scspv=1.d0
 spairtol=1e-4
 sqmprog=
 subminp=top
 symm=0
 talg=occ
 temp=298.15
 test=off
 theodore=off
 tlmo=0.999
 tpao=0.94
 tprint=off
 uncontract=off
 unit=angs
 usedisk=2
 verbosity=3
 wpairtol=0.100000000E-05
 
 Calculating integrals for small-basis SCF...

 ************************ 2023-04-26 04:14:04 *************************
 Executing integ...

 Allocation of 200.0 Gbytes of memory...
 
 
 Number of atoms:                  8
 Charge:                           0
 Number of electrons:             14
 Number of core electrons:         4
 Spin multiplicity:                1
 
                 Cartesian coordinates [bohr]      Atomic mass [AMU]  Z
   1  C     0.00000000    0.00000000    4.59825988    12.000000       6
   2  O     0.00000000    0.00000000    6.76543524    15.994915       8
   3  Mg    0.00000000    0.00000000   -0.01460385     0.000000       0
   4  O    -4.00656758    0.00000000   -0.00388515     0.000000       0
   5  O     0.00000000    4.00656758   -0.00388515     0.000000       0
   6  O     4.00656758    0.00000000   -0.00388515     0.000000       0
   7  O     0.00000000   -4.00656758   -0.00388515     0.000000       0
   8  O     0.00000000    0.00000000   -4.06107376     0.000000       0
 
 This molecule is a prolate symmetric top.
 
 Point group: C4v 
 Computational point group: C1  
 
 Cartesian coordinates in standard orientation [bohr]
   1  C     0.00000000    0.00000000    0.51301473
   2  O     0.00000000    0.00000000    2.68019010
   3  Mg    0.00000000    0.00000000   -4.09984899
   4  O     4.00656758   -0.00000000   -4.08913029
   5  O     0.00000000    4.00656758   -4.08913029
   6  O    -4.00656758    0.00000000   -4.08913029
   7  O    -0.00000000   -4.00656758   -4.08913029
   8  O     0.00000000    0.00000000   -8.14631890
 
 Nuclear repulsion energy [au]:         22.148646010002
 
 
 Basis set information:
 
 Maximum angular momentum: g
 Maximum number of contracted Gaussians:   13
 Maximum number of primitive Gaussians:    16
 Spherical harmonic GTOs are used.
 
 
 Conventional basis set:
 
   1  C  def2-svp [ 7s 4p 1d | 3s 2p 1d ]
   2  O  def2-svp [ 7s 4p 1d | 3s 2p 1d ]
   3  Mg def2-svp [ 10s 7p 1d | 4s 3p 1d ]
   4  O  def2-svp [ 7s 4p 1d | 3s 2p 1d ]
   5  O  def2-svp [ 7s 4p 1d | 3s 2p 1d ]
   6  O  def2-svp [ 7s 4p 1d | 3s 2p 1d ]
   7  O  def2-svp [ 7s 4p 1d | 3s 2p 1d ]
   8  O  def2-svp [ 7s 4p 1d | 3s 2p 1d ]
 
 Basis functions:
            1             2             3             4             5             6             7             8             9            10
    0    1C1s          1C2s          1C3s          1C1pz         1C1py         1C1px         1C2pz         1C2py         1C2px         1C1d-2    
    1    1C1d-1        1C1d0         1C1d+1        1C1d+2        2O1s          2O2s          2O3s          2O1pz         2O1py         2O1px     
    2    2O2pz         2O2py         2O2px         2O1d-2        2O1d-1        2O1d0         2O1d+1        2O1d+2        3Mg1s         3Mg2s     
    3    3Mg3s         3Mg4s         3Mg1pz        3Mg1py        3Mg1px        3Mg2pz        3Mg2py        3Mg2px        3Mg3pz        3Mg3py    
    4    3Mg3px        3Mg1d-2       3Mg1d-1       3Mg1d0        3Mg1d+1       3Mg1d+2       4O1s          4O2s          4O3s          4O1pz     
    5    4O1py         4O1px         4O2pz         4O2py         4O2px         4O1d-2        4O1d-1        4O1d0         4O1d+1        4O1d+2    
    6    5O1s          5O2s          5O3s          5O1pz         5O1py         5O1px         5O2pz         5O2py         5O2px         5O1d-2    
    7    5O1d-1        5O1d0         5O1d+1        5O1d+2        6O1s          6O2s          6O3s          6O1pz         6O1py         6O1px     
    8    6O2pz         6O2py         6O2px         6O1d-2        6O1d-1        6O1d0         6O1d+1        6O1d+2        7O1s          7O2s      
    9    7O3s          7O1pz         7O1py         7O1px         7O2pz         7O2py         7O2px         7O1d-2        7O1d-1        7O1d0     
   10    7O1d+1        7O1d+2        8O1s          8O2s          8O3s          8O1pz         8O1py         8O1px         8O2pz         8O2py     
   11    8O2px         8O1d-2        8O1d-1        8O1d0         8O1d+1        8O1d+2    
 
 Maximum number of basis functions per shell:    9
 Total number of basis functions:    116
 
 
 Fitting basis set for the SCF calculation:
 
   1  C  def2-qzvpp-ri-jk [ 14s 10p 6d 2f 1g | 10s 8p 5d 1f 1g ]
   2  O  def2-qzvpp-ri-jk [ 14s 10p 6d 2f 1g | 10s 8p 4d 2f 1g ]
   3  Mg def2-qzvpp-ri-jk [ 16s 12p 9d 4f 1g | 13s 9p 7d 4f 1g ]
   4  O  def2-qzvpp-ri-jk [ 14s 10p 6d 2f 1g | 10s 8p 4d 2f 1g ]
   5  O  def2-qzvpp-ri-jk [ 14s 10p 6d 2f 1g | 10s 8p 4d 2f 1g ]
   6  O  def2-qzvpp-ri-jk [ 14s 10p 6d 2f 1g | 10s 8p 4d 2f 1g ]
   7  O  def2-qzvpp-ri-jk [ 14s 10p 6d 2f 1g | 10s 8p 4d 2f 1g ]
   8  O  def2-qzvpp-ri-jk [ 14s 10p 6d 2f 1g | 10s 8p 4d 2f 1g ]
 
 Basis functions:
            1             2             3             4             5             6             7             8             9            10
    0    1C1s          1C2s          1C3s          1C4s          1C5s          1C6s          1C7s          1C8s          1C9s          1C10s     
    1    1C1pz         1C1py         1C1px         1C2pz         1C2py         1C2px         1C3pz         1C3py         1C3px         1C4pz     
    2    1C4py         1C4px         1C5pz         1C5py         1C5px         1C6pz         1C6py         1C6px         1C7pz         1C7py     
    3    1C7px         1C8pz         1C8py         1C8px         1C1d-2        1C1d-1        1C1d0         1C1d+1        1C1d+2        1C2d-2    
    4    1C2d-1        1C2d0         1C2d+1        1C2d+2        1C3d-2        1C3d-1        1C3d0         1C3d+1        1C3d+2        1C4d-2    
    5    1C4d-1        1C4d0         1C4d+1        1C4d+2        1C5d-2        1C5d-1        1C5d0         1C5d+1        1C5d+2        1C1f-3    
    6    1C1f-2        1C1f-1        1C1f0         1C1f+1        1C1f+2        1C1f+3        1C1g-4        1C1g-3        1C1g-2        1C1g-1    
    7    1C1g0         1C1g+1        1C1g+2        1C1g+3        1C1g+4        2O1s          2O2s          2O3s          2O4s          2O5s      
    8    2O6s          2O7s          2O8s          2O9s          2O10s         2O1pz         2O1py         2O1px         2O2pz         2O2py     
    9    2O2px         2O3pz         2O3py         2O3px         2O4pz         2O4py         2O4px         2O5pz         2O5py         2O5px     
   10    2O6pz         2O6py         2O6px         2O7pz         2O7py         2O7px         2O8pz         2O8py         2O8px         2O1d-2    
   11    2O1d-1        2O1d0         2O1d+1        2O1d+2        2O2d-2        2O2d-1        2O2d0         2O2d+1        2O2d+2        2O3d-2    
   12    2O3d-1        2O3d0         2O3d+1        2O3d+2        2O4d-2        2O4d-1        2O4d0         2O4d+1        2O4d+2        2O1f-3    
   13    2O1f-2        2O1f-1        2O1f0         2O1f+1        2O1f+2        2O1f+3        2O2f-3        2O2f-2        2O2f-1        2O2f0     
   14    2O2f+1        2O2f+2        2O2f+3        2O1g-4        2O1g-3        2O1g-2        2O1g-1        2O1g0         2O1g+1        2O1g+2    
   15    2O1g+3        2O1g+4        3Mg1s         3Mg2s         3Mg3s         3Mg4s         3Mg5s         3Mg6s         3Mg7s         3Mg8s     
   16    3Mg9s         3Mg10s        3Mg11s        3Mg12s        3Mg13s        3Mg1pz        3Mg1py        3Mg1px        3Mg2pz        3Mg2py    
   17    3Mg2px        3Mg3pz        3Mg3py        3Mg3px        3Mg4pz        3Mg4py        3Mg4px        3Mg5pz        3Mg5py        3Mg5px    
   18    3Mg6pz        3Mg6py        3Mg6px        3Mg7pz        3Mg7py        3Mg7px        3Mg8pz        3Mg8py        3Mg8px        3Mg9pz    
   19    3Mg9py        3Mg9px        3Mg1d-2       3Mg1d-1       3Mg1d0        3Mg1d+1       3Mg1d+2       3Mg2d-2       3Mg2d-1       3Mg2d0    
   20    3Mg2d+1       3Mg2d+2       3Mg3d-2       3Mg3d-1       3Mg3d0        3Mg3d+1       3Mg3d+2       3Mg4d-2       3Mg4d-1       3Mg4d0    
   21    3Mg4d+1       3Mg4d+2       3Mg5d-2       3Mg5d-1       3Mg5d0        3Mg5d+1       3Mg5d+2       3Mg6d-2       3Mg6d-1       3Mg6d0    
   22    3Mg6d+1       3Mg6d+2       3Mg7d-2       3Mg7d-1       3Mg7d0        3Mg7d+1       3Mg7d+2       3Mg1f-3       3Mg1f-2       3Mg1f-1   
   23    3Mg1f0        3Mg1f+1       3Mg1f+2       3Mg1f+3       3Mg2f-3       3Mg2f-2       3Mg2f-1       3Mg2f0        3Mg2f+1       3Mg2f+2   
   24    3Mg2f+3       3Mg3f-3       3Mg3f-2       3Mg3f-1       3Mg3f0        3Mg3f+1       3Mg3f+2       3Mg3f+3       3Mg4f-3       3Mg4f-2   
   25    3Mg4f-1       3Mg4f0        3Mg4f+1       3Mg4f+2       3Mg4f+3       3Mg1g-4       3Mg1g-3       3Mg1g-2       3Mg1g-1       3Mg1g0    
   26    3Mg1g+1       3Mg1g+2       3Mg1g+3       3Mg1g+4       4O1s          4O2s          4O3s          4O4s          4O5s          4O6s      
   27    4O7s          4O8s          4O9s          4O10s         4O1pz         4O1py         4O1px         4O2pz         4O2py         4O2px     
   28    4O3pz         4O3py         4O3px         4O4pz         4O4py         4O4px         4O5pz         4O5py         4O5px         4O6pz     
   29    4O6py         4O6px         4O7pz         4O7py         4O7px         4O8pz         4O8py         4O8px         4O1d-2        4O1d-1    
   30    4O1d0         4O1d+1        4O1d+2        4O2d-2        4O2d-1        4O2d0         4O2d+1        4O2d+2        4O3d-2        4O3d-1    
   31    4O3d0         4O3d+1        4O3d+2        4O4d-2        4O4d-1        4O4d0         4O4d+1        4O4d+2        4O1f-3        4O1f-2    
   32    4O1f-1        4O1f0         4O1f+1        4O1f+2        4O1f+3        4O2f-3        4O2f-2        4O2f-1        4O2f0         4O2f+1    
   33    4O2f+2        4O2f+3        4O1g-4        4O1g-3        4O1g-2        4O1g-1        4O1g0         4O1g+1        4O1g+2        4O1g+3    
   34    4O1g+4        5O1s          5O2s          5O3s          5O4s          5O5s          5O6s          5O7s          5O8s          5O9s      
   35    5O10s         5O1pz         5O1py         5O1px         5O2pz         5O2py         5O2px         5O3pz         5O3py         5O3px     
   36    5O4pz         5O4py         5O4px         5O5pz         5O5py         5O5px         5O6pz         5O6py         5O6px         5O7pz     
   37    5O7py         5O7px         5O8pz         5O8py         5O8px         5O1d-2        5O1d-1        5O1d0         5O1d+1        5O1d+2    
   38    5O2d-2        5O2d-1        5O2d0         5O2d+1        5O2d+2        5O3d-2        5O3d-1        5O3d0         5O3d+1        5O3d+2    
   39    5O4d-2        5O4d-1        5O4d0         5O4d+1        5O4d+2        5O1f-3        5O1f-2        5O1f-1        5O1f0         5O1f+1    
   40    5O1f+2        5O1f+3        5O2f-3        5O2f-2        5O2f-1        5O2f0         5O2f+1        5O2f+2        5O2f+3        5O1g-4    
   41    5O1g-3        5O1g-2        5O1g-1        5O1g0         5O1g+1        5O1g+2        5O1g+3        5O1g+4        6O1s          6O2s      
   42    6O3s          6O4s          6O5s          6O6s          6O7s          6O8s          6O9s          6O10s         6O1pz         6O1py     
   43    6O1px         6O2pz         6O2py         6O2px         6O3pz         6O3py         6O3px         6O4pz         6O4py         6O4px     
   44    6O5pz         6O5py         6O5px         6O6pz         6O6py         6O6px         6O7pz         6O7py         6O7px         6O8pz     
   45    6O8py         6O8px         6O1d-2        6O1d-1        6O1d0         6O1d+1        6O1d+2        6O2d-2        6O2d-1        6O2d0     
   46    6O2d+1        6O2d+2        6O3d-2        6O3d-1        6O3d0         6O3d+1        6O3d+2        6O4d-2        6O4d-1        6O4d0     
   47    6O4d+1        6O4d+2        6O1f-3        6O1f-2        6O1f-1        6O1f0         6O1f+1        6O1f+2        6O1f+3        6O2f-3    
   48    6O2f-2        6O2f-1        6O2f0         6O2f+1        6O2f+2        6O2f+3        6O1g-4        6O1g-3        6O1g-2        6O1g-1    
   49    6O1g0         6O1g+1        6O1g+2        6O1g+3        6O1g+4        7O1s          7O2s          7O3s          7O4s          7O5s      
   50    7O6s          7O7s          7O8s          7O9s          7O10s         7O1pz         7O1py         7O1px         7O2pz         7O2py     
   51    7O2px         7O3pz         7O3py         7O3px         7O4pz         7O4py         7O4px         7O5pz         7O5py         7O5px     
   52    7O6pz         7O6py         7O6px         7O7pz         7O7py         7O7px         7O8pz         7O8py         7O8px         7O1d-2    
   53    7O1d-1        7O1d0         7O1d+1        7O1d+2        7O2d-2        7O2d-1        7O2d0         7O2d+1        7O2d+2        7O3d-2    
   54    7O3d-1        7O3d0         7O3d+1        7O3d+2        7O4d-2        7O4d-1        7O4d0         7O4d+1        7O4d+2        7O1f-3    
   55    7O1f-2        7O1f-1        7O1f0         7O1f+1        7O1f+2        7O1f+3        7O2f-3        7O2f-2        7O2f-1        7O2f0     
   56    7O2f+1        7O2f+2        7O2f+3        7O1g-4        7O1g-3        7O1g-2        7O1g-1        7O1g0         7O1g+1        7O1g+2    
   57    7O1g+3        7O1g+4        8O1s          8O2s          8O3s          8O4s          8O5s          8O6s          8O7s          8O8s      
   58    8O9s          8O10s         8O1pz         8O1py         8O1px         8O2pz         8O2py         8O2px         8O3pz         8O3py     
   59    8O3px         8O4pz         8O4py         8O4px         8O5pz         8O5py         8O5px         8O6pz         8O6py         8O6px     
   60    8O7pz         8O7py         8O7px         8O8pz         8O8py         8O8px         8O1d-2        8O1d-1        8O1d0         8O1d+1    
   61    8O1d+2        8O2d-2        8O2d-1        8O2d0         8O2d+1        8O2d+2        8O3d-2        8O3d-1        8O3d0         8O3d+1    
   62    8O3d+2        8O4d-2        8O4d-1        8O4d0         8O4d+1        8O4d+2        8O1f-3        8O1f-2        8O1f-1        8O1f0     
   63    8O1f+1        8O1f+2        8O1f+3        8O2f-3        8O2f-2        8O2f-1        8O2f0         8O2f+1        8O2f+2        8O2f+3    
   64    8O1g-4        8O1g-3        8O1g-2        8O1g-1        8O1g0         8O1g+1        8O1g+2        8O1g+3        8O1g+4    
 
 Maximum number of basis functions per shell:   35
 Total number of basis functions:    649
 
 
 Initializing the SAD routines for the initial guess...
 Checking the files required for the initial guess...
 Atomic density files have been found for the atoms with the following serial numbers:
  
 Atomic density files have not been found for the atoms with the following serial numbers:
  1 2
 Generating SCFDENSITIES.C.def2-svp.0
 Generating SCFDENSITIES.O.def2-svp.0
 CPU time [min]:     0.117                   Wall time [min]:     0.183
 
 Character table for point group C1:
 
          E  
    A     1
 
 Number of basis functions per irrep:
    A     116
 
 
 Calculation of overlap integrals...
 CPU time [min]:     0.118                   Wall time [min]:     0.183
 
 Calculation of the square root of the overlap matrix...
 Minimum eigenvalue of the overlap matrix: 0.116597E-01
 CPU time [min]:     0.249                   Wall time [min]:     0.190
 
 Calculation of kinetic energy integrals...
 CPU time [min]:     0.250                   Wall time [min]:     0.190
 Calculation of dipole moment integrals...
 CPU time [min]:     0.250                   Wall time [min]:     0.190
 Calculation of nuclear attraction integrals...
 CPU time [min]:     0.255                   Wall time [min]:     0.190
 
 Calculation of prescreening integrals...
 CPU time [min]:     0.308                   Wall time [min]:     0.191
 
 Calculation of two-center Coulomb integrals...
   1% done.
  12% done.
  24% done.
  37% done.
  49% done.
  61% done.
  72% done.
  87% done.
 100% done.
 CPU time [min]:     0.392                   Wall time [min]:     0.194
 
 Cholesky decomposition of the two-center matrix...
 Reciprocal of the condition number:  0.536328E-05
 CPU time [min]:     0.517                   Wall time [min]:     0.198
 
 
 Running small-basis SCF...

 ************************ 2023-04-26 04:14:16 *************************
 Executing scf...

 @scfsetup: integrals calculated directly
            mrcc/integ direct run
 @scfsetup: calculating on full matrices
            not using symmetry adapted basis
 @scfsetup: diis switched on
 @scfsetup: number of steps to extrapolate from  10
 @scfsetup: tolerance in energy deviation    0.100000E-05
            tolerance in density deviation    0.100000E-06
 @scfsetup: maximum number of iterations:1000
 @scfsetup: restricted closed shell hf calc
 @scfsetup: starting scf from superposition of atomic densities
 @scfsetup: occupation set:
            from initial orbitals
 @scfsetup: Parameter-set for SCF acceleration: normal
 @scfsetup: diis runs from iteration:   2
 @scfsetup: diis runs to iteration:1000
 @scfsetup: diis runs in every iteration
 @scfsetup: diiswatch is disabled                   
 @scfsetup: diis dtol criteria to switch on:      0.0000E+00
           (or the iteration number below is reached)
 @scfsetup: static damping scheme
            iteration step criteria to turn damping off: 3
 @scfsetup: dynamic level shifting
            tolarance in HOMO-LUMO gap:  0.200
            tolarance in density deviation:     0.0000E+00
            iteration step criteria to turn level shifting off: 8
 Allocation of 200.0 Gbytes of memory...
 ======================================================================
 ITERATION STEP   1
 CPU time [min]:     0.033                   Wall time [min]:     0.009
 

 SCF control                  : initial
 Damping factor/level shift   : 0.000/0.200
 DIIS [start/end/frequency]   :   2 /*** /  1

 Constructing Fock-matrix...
 
 Pipek-Mezey localization...
 Step  Convergence
   1   0.790058873571
   2   0.318841275818
   3   0.023340341269
   4   0.000011414696
   5   0.000000000082
 CPU time [min]:     0.063                   Wall time [min]:     0.010
 
 Constructing local fitting domains...
 Maximum number of atoms in fitting domains:    8
 Average number of atoms in fitting domains:    3.7
 
 First step of Coulomb + first step of exchange...
 Exchange contribution is evaluated for MOs 1 to 7.
   1% done.
  13% done.
  27% done.
  41% done.
  58% done.
  70% done.
  82% done.
 100% done.
 Fitting and assembly step of exchange...
 CPU time [min]:     0.557                   Wall time [min]:     0.025
 
 Second step of Coulomb...
   1% done.
  13% done.
  27% done.
  41% done.
  58% done.
  70% done.
  82% done.
 100% done.
 CPU time [min]:     0.577                   Wall time [min]:     0.026
 
 Gradient norm:      1.6037E+00
 RMS of [F,P]:                                         0.01819590937609
 RMS of difference density:                            0.00779698911840
 Gap [au]:  0.64104639
 ALPHA OCC:   7
 BETA  OCC:   7
 
 ***HARTREE-FOCK ENERGY IN STEP   1 IS       -112.4048871454333209 [AU]
 ======================================================================
 ITERATION STEP   2
 CPU time [min]:     0.602                   Wall time [min]:     0.029
 

 SCF control                  : diis
 Damping factor/level shift   : 0.000/0.000
 DIIS [start/end/frequency]   :   2 /*** /  1

 Constructing Fock-matrix...
 
 Pipek-Mezey localization...
 Step  Convergence
   1   0.071637587035
   2   0.066607883031
   3   0.003437209322
   4   0.000000064829
 CPU time [min]:     0.630                   Wall time [min]:     0.030
 
 Constructing local fitting domains...
 Maximum number of atoms in fitting domains:    8
 Average number of atoms in fitting domains:    3.7
 
 First step of Coulomb + first step of exchange...
 Exchange contribution is evaluated for MOs 1 to 7.
   1% done.
  13% done.
  27% done.
  41% done.
  58% done.
  70% done.
  82% done.
 100% done.
 Fitting and assembly step of exchange...
 CPU time [min]:     0.700                   Wall time [min]:     0.032
 
 Second step of Coulomb...
   1% done.
  13% done.
  27% done.
  41% done.
  58% done.
  70% done.
  82% done.
 100% done.
 CPU time [min]:     0.720                   Wall time [min]:     0.032
 
 Gradient norm:      1.1696E-01
 DIIS is running in this iteration step.
 RMS of [F,P]:                                         0.00226233021636
 RMS of difference density:                            0.00202132797615
 Gap [au]:  0.58997173
 ALPHA OCC:   7
 BETA  OCC:   7
 
 ***HARTREE-FOCK ENERGY IN STEP   2 IS       -112.6341538187621438 [AU]
 
 Step comparison  Energy Drift [au]  DIIS error drift  Gradient drift
        1            2.2927E-01         1.5934E-02       1.4867E+00
        2            1.1263E+02         1.0000E-07       1.4867E+00
 ======================================================================
 ITERATION STEP   3
 CPU time [min]:     0.745                   Wall time [min]:     0.033
 

 SCF control                  : diis
 Damping factor/level shift   : 0.000/0.000
 DIIS [start/end/frequency]   :   2 /*** /  1

 Constructing Fock-matrix...
 
 Pipek-Mezey localization...
 Step  Convergence
   1   0.563328386262
   2   0.085159208497
   3   0.002935396262
   4   0.000001272296
   5   0.000000000076
 CPU time [min]:     0.764                   Wall time [min]:     0.034
 
 Constructing local fitting domains...
 Local fitting domains are unchanged.
 
 First step of Coulomb + first step of exchange...
 Exchange contribution is evaluated for MOs 1 to 7.
   1% done.
  13% done.
  27% done.
  41% done.
  58% done.
  70% done.
  82% done.
 100% done.
 Fitting and assembly step of exchange...
 CPU time [min]:     0.831                   Wall time [min]:     0.036
 
 Second step of Coulomb...
   1% done.
  13% done.
  27% done.
  41% done.
  58% done.
  70% done.
  82% done.
 100% done.
 CPU time [min]:     0.852                   Wall time [min]:     0.036
 
 Gradient norm:      3.4520E-02
 DIIS is running in this iteration step.
 RMS of [F,P]:                                         0.00054025873611
 RMS of difference density:                            0.00046019316734
 Gap [au]:  0.60994557
 ALPHA OCC:   7
 BETA  OCC:   7
 
 ***HARTREE-FOCK ENERGY IN STEP   3 IS       -112.6428965578328274 [AU]
 
 Step comparison  Energy Drift [au]  DIIS error drift  Gradient drift
        2            8.7427E-03         1.7221E-03       8.2442E-02
 ======================================================================
 ITERATION STEP   4
 CPU time [min]:     0.862                   Wall time [min]:     0.036
 

 SCF control                  : diis
 Damping factor/level shift   : 0.000/0.000
 DIIS [start/end/frequency]   :   2 /*** /  1

 Constructing Fock-matrix...
 
 Pipek-Mezey localization...
 Step  Convergence
   1   0.167237287372
   2   0.139867980232
   3   0.032743272870
   4   0.000001468346
   5   0.000000000160
   6   0.000000000000
 CPU time [min]:     0.880                   Wall time [min]:     0.037
 
 Constructing local fitting domains...
 Local fitting domains are unchanged.
 
 First step of Coulomb + first step of exchange...
 Exchange contribution is evaluated for MOs 1 to 7.
   1% done.
  13% done.
  27% done.
  41% done.
  58% done.
  70% done.
  82% done.
 100% done.
 Fitting and assembly step of exchange...
 CPU time [min]:     0.948                   Wall time [min]:     0.039
 
 Second step of Coulomb...
   1% done.
  13% done.
  27% done.
  41% done.
  58% done.
  70% done.
  82% done.
 100% done.
 CPU time [min]:     0.968                   Wall time [min]:     0.039
 
 Gradient norm:      7.0909E-03
 DIIS is running in this iteration step.
 RMS of [F,P]:                                         0.00016217015573
 RMS of difference density:                            0.00022193779862
 Gap [au]:  0.60949529
 ALPHA OCC:   7
 BETA  OCC:   7
 
 ***HARTREE-FOCK ENERGY IN STEP   4 IS       -112.6435527599911381 [AU]
 
 Step comparison  Energy Drift [au]  DIIS error drift  Gradient drift
        3            6.5620E-04         3.7809E-04       2.7429E-02
 ======================================================================
 ITERATION STEP   5
 CPU time [min]:     0.977                   Wall time [min]:     0.040
 

 SCF control                  : diis
 Damping factor/level shift   : 0.000/0.000
 DIIS [start/end/frequency]   :   2 /*** /  1

 Constructing Fock-matrix...
 
 Pipek-Mezey localization...
 Step  Convergence
   1   0.567900095087
   2   0.559251074115
   3   0.147331535986
   4   0.000045282964
   5   0.000000044250
   6   0.000000000000
 CPU time [min]:     0.996                   Wall time [min]:     0.040
 
 Constructing local fitting domains...
 Local fitting domains are unchanged.
 
 First step of Coulomb + first step of exchange...
 Exchange contribution is evaluated for MOs 1 to 7.
   1% done.
  13% done.
  27% done.
  41% done.
  58% done.
  70% done.
  82% done.
 100% done.
 Fitting and assembly step of exchange...
 CPU time [min]:     1.064                   Wall time [min]:     0.042
 
 Second step of Coulomb...
   1% done.
  13% done.
  27% done.
  41% done.
  58% done.
  70% done.
  82% done.
 100% done.
 CPU time [min]:     1.084                   Wall time [min]:     0.043
 
 Gradient norm:      5.6971E-03
 DIIS is running in this iteration step.
 RMS of [F,P]:                                         0.00009804262391
 RMS of difference density:                            0.00005663443322
 Gap [au]:  0.60884833
 ALPHA OCC:   7
 BETA  OCC:   7
 
 ***HARTREE-FOCK ENERGY IN STEP   5 IS       -112.6436481464262300 [AU]
 
 Step comparison  Energy Drift [au]  DIIS error drift  Gradient drift
        4            9.5386E-05         6.4128E-05       1.3938E-03
 ======================================================================
 ITERATION STEP   6
 CPU time [min]:     1.093                   Wall time [min]:     0.043
 

 SCF control                  : diis
 Damping factor/level shift   : 0.000/0.000
 DIIS [start/end/frequency]   :   2 /*** /  1

 Constructing Fock-matrix...
 
 Pipek-Mezey localization...
 Step  Convergence
   1   0.600073137287
   2   0.102396046429
   3   0.006515418598
   4   0.000001630863
   5   0.000000000151
   6   0.000000000000
 CPU time [min]:     1.112                   Wall time [min]:     0.043
 
 Constructing local fitting domains...
 Local fitting domains are unchanged.
 
 First step of Coulomb + first step of exchange...
 Exchange contribution is evaluated for MOs 1 to 7.
   1% done.
  13% done.
  27% done.
  41% done.
  58% done.
  70% done.
  82% done.
 100% done.
 Fitting and assembly step of exchange...
 CPU time [min]:     1.179                   Wall time [min]:     0.045
 
 Second step of Coulomb...
   1% done.
  13% done.
  27% done.
  41% done.
  58% done.
  70% done.
  82% done.
 100% done.
 CPU time [min]:     1.199                   Wall time [min]:     0.046
 
 Gradient norm:      7.3586E-04
 DIIS is running in this iteration step.
 RMS of [F,P]:                                         0.00001646729928
 RMS of difference density:                            0.00002774831709
 Gap [au]:  0.60896086
 ALPHA OCC:   7
 BETA  OCC:   7
 
 ***HARTREE-FOCK ENERGY IN STEP   6 IS       -112.6436607674700952 [AU]
 
 Step comparison  Energy Drift [au]  DIIS error drift  Gradient drift
        5            1.2621E-05         8.1575E-05       4.9613E-03
 ======================================================================
 ITERATION STEP   7
 CPU time [min]:     1.209                   Wall time [min]:     0.046
 

 SCF control                  : diis
 Damping factor/level shift   : 0.000/0.000
 DIIS [start/end/frequency]   :   2 /*** /  1

 Constructing Fock-matrix...
 
 Pipek-Mezey localization...
 Step  Convergence
   1   0.235384817276
   2   0.066167686077
   3   0.001118679816
   4   0.000000033598
   5   0.000000000011
   6   0.000000000000
 CPU time [min]:     1.228                   Wall time [min]:     0.047
 
 Constructing local fitting domains...
 Local fitting domains are unchanged.
 
 First step of Coulomb + first step of exchange...
 Exchange contribution is evaluated for MOs 1 to 7.
   1% done.
  13% done.
  27% done.
  41% done.
  58% done.
  70% done.
  82% done.
 100% done.
 Fitting and assembly step of exchange...
 CPU time [min]:     1.295                   Wall time [min]:     0.049
 
 Second step of Coulomb...
   1% done.
  13% done.
  27% done.
  41% done.
  58% done.
  70% done.
  82% done.
 100% done.
 CPU time [min]:     1.315                   Wall time [min]:     0.049
 
 Gradient norm:      2.0978E-04
 DIIS is running in this iteration step.
 RMS of [F,P]:                                         0.00000350763940
 RMS of difference density:                            0.00000415339472
 Gap [au]:  0.60891095
 ALPHA OCC:   7
 BETA  OCC:   7
 
 ***HARTREE-FOCK ENERGY IN STEP   7 IS       -112.6436619113773787 [AU]
 
 Step comparison  Energy Drift [au]  DIIS error drift  Gradient drift
        6            1.1439E-06         1.2960E-05       5.2608E-04
 ======================================================================
 ITERATION STEP   8
 CPU time [min]:     1.325                   Wall time [min]:     0.049
 

 SCF control                  : diis
 Damping factor/level shift   : 0.000/0.000
 DIIS [start/end/frequency]   :   2 /*** /  1

 Constructing Fock-matrix...
 
 Pipek-Mezey localization...
 Step  Convergence
   1   0.559862182360
   2   0.061983905913
   3   0.000010159085
   4   0.000000000216
   5   0.000000000000
 CPU time [min]:     1.344                   Wall time [min]:     0.050
 
 Constructing local fitting domains...
 Local fitting domains are unchanged.
 
 First step of Coulomb + first step of exchange...
 Exchange contribution is evaluated for MOs 1 to 7.
   1% done.
  13% done.
  27% done.
  41% done.
  58% done.
  70% done.
  82% done.
 100% done.
 Fitting and assembly step of exchange...
 CPU time [min]:     1.411                   Wall time [min]:     0.052
 
 Second step of Coulomb...
   1% done.
  13% done.
  27% done.
  41% done.
  58% done.
  70% done.
  82% done.
 100% done.
 CPU time [min]:     1.432                   Wall time [min]:     0.052
 
 Gradient norm:      2.4231E-05
 DIIS is running in this iteration step.
 RMS of [F,P]:                                         0.00000044434152
 RMS of difference density:                            0.00000054444520
 Gap [au]:  0.60891745
 ALPHA OCC:   7
 BETA  OCC:   7
 
 ***HARTREE-FOCK ENERGY IN STEP   8 IS       -112.6436619418263660 [AU]
 
 Step comparison  Energy Drift [au]  DIIS error drift  Gradient drift
        7            3.0449E-08         3.0633E-06       1.8554E-04
 ======================================================================
 ITERATION STEP   9
 CPU time [min]:     1.440                   Wall time [min]:     0.053
 

 SCF control                  : diis
 Damping factor/level shift   : 0.000/0.000
 DIIS [start/end/frequency]   :   2 /*** /  1

 Constructing Fock-matrix...
 
 Pipek-Mezey localization...
 Step  Convergence
   1   0.574237407693
   2   0.072589463061
   3   0.001710464143
   4   0.000000020246
   5   0.000000000002
   6   0.000000000000
 CPU time [min]:     1.459                   Wall time [min]:     0.053
 
 Constructing local fitting domains...
 Local fitting domains are unchanged.
 
 First step of Coulomb + first step of exchange...
 Exchange contribution is evaluated for MOs 1 to 7.
   1% done.
  13% done.
  27% done.
  41% done.
  58% done.
  70% done.
  82% done.
 100% done.
 Fitting and assembly step of exchange...
 CPU time [min]:     1.527                   Wall time [min]:     0.055
 
 Second step of Coulomb...
   1% done.
  13% done.
  27% done.
  41% done.
  58% done.
  70% done.
  82% done.
 100% done.
 CPU time [min]:     1.547                   Wall time [min]:     0.056
 
 Gradient norm:      2.5573E-06
 DIIS is running in this iteration step.
 RMS of [F,P]:                                         0.00000005959565
 RMS of difference density:                            0.00000008898849
 Gap [au]:  0.60891635
 ALPHA OCC:   7
 BETA  OCC:   7
 
 ***HARTREE-FOCK ENERGY IN STEP   9 IS       -112.6436619423724608 [AU]
 
 Step comparison  Energy Drift [au]  DIIS error drift  Gradient drift
        8            5.4609E-10         3.8475E-07       2.1674E-05
 
 The SCF iteration has converged.
 An extra iteration will be performed to calculate accurate SCF energy.
 
 ======================================================================
 ITERATION STEP  10
 CPU time [min]:     1.556                   Wall time [min]:     0.056
 

 SCF control                  : diis
 Damping factor/level shift   : 0.000/0.000
 DIIS [start/end/frequency]   :   2 /*** /  1

 Constructing Fock-matrix...
 
 Pipek-Mezey localization...
 Step  Convergence
   1   0.604453558982
   2   0.129387348817
   3   0.002392364129
   4   0.000000532810
   5   0.000000000059
   6   0.000000000000
 CPU time [min]:     1.575                   Wall time [min]:     0.056
 
 Constructing local fitting domains...
 Maximum number of atoms in fitting domains:    8
 Average number of atoms in fitting domains:    7.9
 
 First step of Coulomb + first step of exchange...
 Exchange contribution is evaluated for MOs 1 to 7.
   1% done.
  13% done.
  27% done.
  41% done.
  58% done.
  70% done.
  82% done.
 100% done.
 Fitting and assembly step of exchange...
 CPU time [min]:     1.658                   Wall time [min]:     0.059
 
 Second step of Coulomb...
   1% done.
  13% done.
  27% done.
  41% done.
  58% done.
  70% done.
  82% done.
 100% done.
 CPU time [min]:     1.679                   Wall time [min]:     0.059
 
 Gradient norm:      2.6573E-05
 RMS of [F,P]:                                         0.00000035680299
 RMS of difference density:                            0.00000032677016
 Gap [au]:  0.60891702
 ALPHA OCC:   7
 BETA  OCC:   7
 
 ***HARTREE-FOCK ENERGY IN STEP  10 IS       -112.6436650925015357 [AU]
 
 Step comparison  Energy Drift [au]  DIIS error drift  Gradient drift
        9            3.1501E-06        -2.9721E-07      -2.4016E-05
 Warning! The DIIS error goes uphill (with respect to previous step).
 Warning! The DIIS error goes uphill (with respect to step   9 ).
 Warning! The gradient goes uphill (with respect to previous step).
 Warning! The gradient goes uphill (with respect to step   9 ).
 ======================================================================
 
 SUCCESS...
 THE SCF ITERATION HAS CONVERGED!
 
                   A   
 FINAL ALPHA OCC:   7
 FINAL BETA  OCC:   7
 
 ***FINAL HARTREE-FOCK ENERGY:       -112.6436650925015357 [AU]
 
 Orbital energies [au]:
      Irrep         Alpha          Beta
    1   A        -20.668670     -20.668670
    2   A        -11.379082     -11.379082
    3   A         -1.497519      -1.497519
    4   A         -0.796947      -0.796947
    5   A         -0.635967      -0.635967
    6   A         -0.635967      -0.635967
    7   A         -0.554036      -0.554036
 
    8   A          0.054881       0.054881
    9   A          0.098467       0.098467
   10   A          0.098467       0.098467
   11   A          0.151047       0.151047
   12   A          0.169094       0.169094
   13   A          0.169094       0.169094
   14   A          0.220862       0.220862
   15   A          0.290069       0.290069
   16   A          0.328605       0.328605
   17   A          0.352020       0.352020
   18   A          0.397919       0.397919
   19   A          0.397919       0.397919
   20   A          0.446124       0.446124
   21   A          0.497137       0.497137
   22   A          0.497137       0.497137
   23   A          0.564928       0.564928
   24   A          0.564928       0.564928
   25   A          0.570233       0.570233
   26   A          0.613815       0.613815
   27   A          0.705361       0.705361
   28   A          0.705361       0.705361
   29   A          0.707405       0.707405
   30   A          0.769663       0.769663
   31   A          0.786299       0.786299
   32   A          0.791742       0.791742
   33   A          0.791742       0.791742
   34   A          0.793038       0.793038
   35   A          0.825665       0.825665
   36   A          0.885969       0.885969
   37   A          0.885969       0.885969
   38   A          0.897908       0.897908
   39   A          0.909477       0.909477
   40   A          0.967681       0.967681
   41   A          1.006105       1.006105
   42   A          1.006105       1.006105
   43   A          1.027780       1.027780
   44   A          1.058588       1.058588
   45   A          1.077868       1.077868
   46   A          1.127117       1.127117
   47   A          1.127117       1.127117
   48   A          1.195803       1.195803
   49   A          1.312120       1.312120
   50   A          1.312120       1.312120
   51   A          1.686153       1.686153
   52   A          1.893098       1.893098
   53   A          1.896639       1.896639
   54   A          1.967176       1.967176
   55   A          1.967176       1.967176
   56   A          2.235856       2.235856
   57   A          2.287132       2.287132
   58   A          2.287132       2.287132
   59   A          2.371440       2.371440
   60   A          2.386907       2.386907
   61   A          2.740781       2.740781
   62   A          2.959136       2.959136
   63   A          2.960526       2.960526
   64   A          3.293579       3.293579
   65   A          3.533772       3.533772
   66   A          3.533772       3.533772
   67   A          4.011816       4.011816
   68   A          4.200459       4.200459
   69   A          4.200463       4.200463
   70   A          4.200502       4.200502
   71   A          4.200502       4.200502
   72   A          4.200729       4.200729
   73   A          4.200830       4.200830
   74   A          4.200927       4.200927
   75   A          4.200927       4.200927
   76   A          4.200992       4.200992
   77   A          4.201004       4.201004
   78   A          4.201094       4.201094
   79   A          4.202010       4.202010
   80   A          4.202010       4.202010
   81   A          4.207891       4.207891
   82   A          4.207891       4.207891
   83   A          4.212594       4.212594
   84   A          4.252445       4.252445
   85   A          4.253110       4.253110
   86   A          4.270359       4.270359
   87   A          4.270359       4.270359
   88   A          4.278684       4.278684
   89   A          4.292954       4.292954
   90   A          4.310825       4.310825
   91   A          4.310825       4.310825
   92   A          4.319961       4.319961
   93   A          5.318225       5.318225
   94   A          5.358013       5.358013
   95   A          5.358013       5.358013
   96   A          5.421423       5.421423
   97   A          5.428421       5.428421
   98   A          5.428421       5.428421
   99   A          5.435705       5.435705
  100   A          5.447734       5.447734
  101   A          5.563946       5.563946
  102   A          5.563946       5.563946
  103   A          5.570431       5.570431
  104   A          5.592357       5.592357
  105   A          5.592357       5.592357
  106   A          5.640212       5.640212
  107   A          5.695511       5.695511
  108   A          9.053437       9.053437
  109   A          9.053437       9.053437
  110   A          9.065264       9.065264
  111   A         34.416198      34.416198
  112   A         34.416198      34.416198
  113   A         34.487073      34.487073
  114   A         34.589125      34.589125
  115   A         34.602502      34.602502
  116   A         74.862936      74.862936
 
 RETURNING FROM SCF ALGORITHM
 ======================================================================

 ************************ 2023-04-26 04:14:20 *************************
 Executing integ...

 Allocation of 200.0 Gbytes of memory...
 
 
 Number of atoms:                  8
 Charge:                           0
 Number of electrons:             14
 Number of core electrons:         4
 Spin multiplicity:                1
 
                 Cartesian coordinates [bohr]      Atomic mass [AMU]  Z
   1  C     0.00000000    0.00000000    4.59825988    12.000000       6
   2  O     0.00000000    0.00000000    6.76543524    15.994915       8
   3  Mg    0.00000000    0.00000000   -0.01460385     0.000000       0
   4  O    -4.00656758    0.00000000   -0.00388515     0.000000       0
   5  O     0.00000000    4.00656758   -0.00388515     0.000000       0
   6  O     4.00656758    0.00000000   -0.00388515     0.000000       0
   7  O     0.00000000   -4.00656758   -0.00388515     0.000000       0
   8  O     0.00000000    0.00000000   -4.06107376     0.000000       0
 
 This molecule is a prolate symmetric top.
 
 Point group: C4v 
 Computational point group: C1  
 
 Cartesian coordinates in standard orientation [bohr]
   1  C     0.00000000    0.00000000    0.51301473
   2  O     0.00000000    0.00000000    2.68019010
   3  Mg    0.00000000    0.00000000   -4.09984899
   4  O     4.00656758   -0.00000000   -4.08913029
   5  O     0.00000000    4.00656758   -4.08913029
   6  O    -4.00656758    0.00000000   -4.08913029
   7  O    -0.00000000   -4.00656758   -4.08913029
   8  O     0.00000000    0.00000000   -8.14631890
 
 Nuclear repulsion energy [au]:         22.148646010002
 
 
 Basis set information:
 
 Maximum angular momentum: g
 Maximum number of contracted Gaussians:   13
 Maximum number of primitive Gaussians:    16
 Spherical harmonic GTOs are used.
 
 
 Conventional basis set:
 
   1  C  aug-cc-pvdz [ 10s 5p 2d | 4s 3p 2d ]
   2  O  aug-cc-pvdz [ 10s 5p 2d | 4s 3p 2d ]
   3  Mg cc-pvdz [ 12s 8p 1d | 4s 3p 1d ]
   4  O  aug-cc-pvdz [ 10s 5p 2d | 4s 3p 2d ]
   5  O  aug-cc-pvdz [ 10s 5p 2d | 4s 3p 2d ]
   6  O  aug-cc-pvdz [ 10s 5p 2d | 4s 3p 2d ]
   7  O  aug-cc-pvdz [ 10s 5p 2d | 4s 3p 2d ]
   8  O  aug-cc-pvdz [ 10s 5p 2d | 4s 3p 2d ]
 
 Basis functions:
            1             2             3             4             5             6             7             8             9            10
    0    1C1s          1C2s          1C3s          1C4s          1C1pz         1C1py         1C1px         1C2pz         1C2py         1C2px     
    1    1C3pz         1C3py         1C3px         1C1d-2        1C1d-1        1C1d0         1C1d+1        1C1d+2        1C2d-2        1C2d-1    
    2    1C2d0         1C2d+1        1C2d+2        2O1s          2O2s          2O3s          2O4s          2O1pz         2O1py         2O1px     
    3    2O2pz         2O2py         2O2px         2O3pz         2O3py         2O3px         2O1d-2        2O1d-1        2O1d0         2O1d+1    
    4    2O1d+2        2O2d-2        2O2d-1        2O2d0         2O2d+1        2O2d+2        3Mg1s         3Mg2s         3Mg3s         3Mg4s     
    5    3Mg1pz        3Mg1py        3Mg1px        3Mg2pz        3Mg2py        3Mg2px        3Mg3pz        3Mg3py        3Mg3px        3Mg1d-2   
    6    3Mg1d-1       3Mg1d0        3Mg1d+1       3Mg1d+2       4O1s          4O2s          4O3s          4O4s          4O1pz         4O1py     
    7    4O1px         4O2pz         4O2py         4O2px         4O3pz         4O3py         4O3px         4O1d-2        4O1d-1        4O1d0     
    8    4O1d+1        4O1d+2        4O2d-2        4O2d-1        4O2d0         4O2d+1        4O2d+2        5O1s          5O2s          5O3s      
    9    5O4s          5O1pz         5O1py         5O1px         5O2pz         5O2py         5O2px         5O3pz         5O3py         5O3px     
   10    5O1d-2        5O1d-1        5O1d0         5O1d+1        5O1d+2        5O2d-2        5O2d-1        5O2d0         5O2d+1        5O2d+2    
   11    6O1s          6O2s          6O3s          6O4s          6O1pz         6O1py         6O1px         6O2pz         6O2py         6O2px     
   12    6O3pz         6O3py         6O3px         6O1d-2        6O1d-1        6O1d0         6O1d+1        6O1d+2        6O2d-2        6O2d-1    
   13    6O2d0         6O2d+1        6O2d+2        7O1s          7O2s          7O3s          7O4s          7O1pz         7O1py         7O1px     
   14    7O2pz         7O2py         7O2px         7O3pz         7O3py         7O3px         7O1d-2        7O1d-1        7O1d0         7O1d+1    
   15    7O1d+2        7O2d-2        7O2d-1        7O2d0         7O2d+1        7O2d+2        8O1s          8O2s          8O3s          8O4s      
   16    8O1pz         8O1py         8O1px         8O2pz         8O2py         8O2px         8O3pz         8O3py         8O3px         8O1d-2    
   17    8O1d-1        8O1d0         8O1d+1        8O1d+2        8O2d-2        8O2d-1        8O2d0         8O2d+1        8O2d+2    
 
 Maximum number of basis functions per shell:   10
 Total number of basis functions:    179
 
 
 Fitting basis set for the SCF calculation:
 
   1  C  def2-qzvpp-ri-jk [ 14s 10p 6d 2f 1g | 10s 8p 5d 1f 1g ]
   2  O  def2-qzvpp-ri-jk [ 14s 10p 6d 2f 1g | 10s 8p 4d 2f 1g ]
   3  Mg def2-qzvpp-ri-jk [ 16s 12p 9d 4f 1g | 13s 9p 7d 4f 1g ]
   4  O  def2-qzvpp-ri-jk [ 14s 10p 6d 2f 1g | 10s 8p 4d 2f 1g ]
   5  O  def2-qzvpp-ri-jk [ 14s 10p 6d 2f 1g | 10s 8p 4d 2f 1g ]
   6  O  def2-qzvpp-ri-jk [ 14s 10p 6d 2f 1g | 10s 8p 4d 2f 1g ]
   7  O  def2-qzvpp-ri-jk [ 14s 10p 6d 2f 1g | 10s 8p 4d 2f 1g ]
   8  O  def2-qzvpp-ri-jk [ 14s 10p 6d 2f 1g | 10s 8p 4d 2f 1g ]
 
 Basis functions:
            1             2             3             4             5             6             7             8             9            10
    0    1C1s          1C2s          1C3s          1C4s          1C5s          1C6s          1C7s          1C8s          1C9s          1C10s     
    1    1C1pz         1C1py         1C1px         1C2pz         1C2py         1C2px         1C3pz         1C3py         1C3px         1C4pz     
    2    1C4py         1C4px         1C5pz         1C5py         1C5px         1C6pz         1C6py         1C6px         1C7pz         1C7py     
    3    1C7px         1C8pz         1C8py         1C8px         1C1d-2        1C1d-1        1C1d0         1C1d+1        1C1d+2        1C2d-2    
    4    1C2d-1        1C2d0         1C2d+1        1C2d+2        1C3d-2        1C3d-1        1C3d0         1C3d+1        1C3d+2        1C4d-2    
    5    1C4d-1        1C4d0         1C4d+1        1C4d+2        1C5d-2        1C5d-1        1C5d0         1C5d+1        1C5d+2        1C1f-3    
    6    1C1f-2        1C1f-1        1C1f0         1C1f+1        1C1f+2        1C1f+3        1C1g-4        1C1g-3        1C1g-2        1C1g-1    
    7    1C1g0         1C1g+1        1C1g+2        1C1g+3        1C1g+4        2O1s          2O2s          2O3s          2O4s          2O5s      
    8    2O6s          2O7s          2O8s          2O9s          2O10s         2O1pz         2O1py         2O1px         2O2pz         2O2py     
    9    2O2px         2O3pz         2O3py         2O3px         2O4pz         2O4py         2O4px         2O5pz         2O5py         2O5px     
   10    2O6pz         2O6py         2O6px         2O7pz         2O7py         2O7px         2O8pz         2O8py         2O8px         2O1d-2    
   11    2O1d-1        2O1d0         2O1d+1        2O1d+2        2O2d-2        2O2d-1        2O2d0         2O2d+1        2O2d+2        2O3d-2    
   12    2O3d-1        2O3d0         2O3d+1        2O3d+2        2O4d-2        2O4d-1        2O4d0         2O4d+1        2O4d+2        2O1f-3    
   13    2O1f-2        2O1f-1        2O1f0         2O1f+1        2O1f+2        2O1f+3        2O2f-3        2O2f-2        2O2f-1        2O2f0     
   14    2O2f+1        2O2f+2        2O2f+3        2O1g-4        2O1g-3        2O1g-2        2O1g-1        2O1g0         2O1g+1        2O1g+2    
   15    2O1g+3        2O1g+4        3Mg1s         3Mg2s         3Mg3s         3Mg4s         3Mg5s         3Mg6s         3Mg7s         3Mg8s     
   16    3Mg9s         3Mg10s        3Mg11s        3Mg12s        3Mg13s        3Mg1pz        3Mg1py        3Mg1px        3Mg2pz        3Mg2py    
   17    3Mg2px        3Mg3pz        3Mg3py        3Mg3px        3Mg4pz        3Mg4py        3Mg4px        3Mg5pz        3Mg5py        3Mg5px    
   18    3Mg6pz        3Mg6py        3Mg6px        3Mg7pz        3Mg7py        3Mg7px        3Mg8pz        3Mg8py        3Mg8px        3Mg9pz    
   19    3Mg9py        3Mg9px        3Mg1d-2       3Mg1d-1       3Mg1d0        3Mg1d+1       3Mg1d+2       3Mg2d-2       3Mg2d-1       3Mg2d0    
   20    3Mg2d+1       3Mg2d+2       3Mg3d-2       3Mg3d-1       3Mg3d0        3Mg3d+1       3Mg3d+2       3Mg4d-2       3Mg4d-1       3Mg4d0    
   21    3Mg4d+1       3Mg4d+2       3Mg5d-2       3Mg5d-1       3Mg5d0        3Mg5d+1       3Mg5d+2       3Mg6d-2       3Mg6d-1       3Mg6d0    
   22    3Mg6d+1       3Mg6d+2       3Mg7d-2       3Mg7d-1       3Mg7d0        3Mg7d+1       3Mg7d+2       3Mg1f-3       3Mg1f-2       3Mg1f-1   
   23    3Mg1f0        3Mg1f+1       3Mg1f+2       3Mg1f+3       3Mg2f-3       3Mg2f-2       3Mg2f-1       3Mg2f0        3Mg2f+1       3Mg2f+2   
   24    3Mg2f+3       3Mg3f-3       3Mg3f-2       3Mg3f-1       3Mg3f0        3Mg3f+1       3Mg3f+2       3Mg3f+3       3Mg4f-3       3Mg4f-2   
   25    3Mg4f-1       3Mg4f0        3Mg4f+1       3Mg4f+2       3Mg4f+3       3Mg1g-4       3Mg1g-3       3Mg1g-2       3Mg1g-1       3Mg1g0    
   26    3Mg1g+1       3Mg1g+2       3Mg1g+3       3Mg1g+4       4O1s          4O2s          4O3s          4O4s          4O5s          4O6s      
   27    4O7s          4O8s          4O9s          4O10s         4O1pz         4O1py         4O1px         4O2pz         4O2py         4O2px     
   28    4O3pz         4O3py         4O3px         4O4pz         4O4py         4O4px         4O5pz         4O5py         4O5px         4O6pz     
   29    4O6py         4O6px         4O7pz         4O7py         4O7px         4O8pz         4O8py         4O8px         4O1d-2        4O1d-1    
   30    4O1d0         4O1d+1        4O1d+2        4O2d-2        4O2d-1        4O2d0         4O2d+1        4O2d+2        4O3d-2        4O3d-1    
   31    4O3d0         4O3d+1        4O3d+2        4O4d-2        4O4d-1        4O4d0         4O4d+1        4O4d+2        4O1f-3        4O1f-2    
   32    4O1f-1        4O1f0         4O1f+1        4O1f+2        4O1f+3        4O2f-3        4O2f-2        4O2f-1        4O2f0         4O2f+1    
   33    4O2f+2        4O2f+3        4O1g-4        4O1g-3        4O1g-2        4O1g-1        4O1g0         4O1g+1        4O1g+2        4O1g+3    
   34    4O1g+4        5O1s          5O2s          5O3s          5O4s          5O5s          5O6s          5O7s          5O8s          5O9s      
   35    5O10s         5O1pz         5O1py         5O1px         5O2pz         5O2py         5O2px         5O3pz         5O3py         5O3px     
   36    5O4pz         5O4py         5O4px         5O5pz         5O5py         5O5px         5O6pz         5O6py         5O6px         5O7pz     
   37    5O7py         5O7px         5O8pz         5O8py         5O8px         5O1d-2        5O1d-1        5O1d0         5O1d+1        5O1d+2    
   38    5O2d-2        5O2d-1        5O2d0         5O2d+1        5O2d+2        5O3d-2        5O3d-1        5O3d0         5O3d+1        5O3d+2    
   39    5O4d-2        5O4d-1        5O4d0         5O4d+1        5O4d+2        5O1f-3        5O1f-2        5O1f-1        5O1f0         5O1f+1    
   40    5O1f+2        5O1f+3        5O2f-3        5O2f-2        5O2f-1        5O2f0         5O2f+1        5O2f+2        5O2f+3        5O1g-4    
   41    5O1g-3        5O1g-2        5O1g-1        5O1g0         5O1g+1        5O1g+2        5O1g+3        5O1g+4        6O1s          6O2s      
   42    6O3s          6O4s          6O5s          6O6s          6O7s          6O8s          6O9s          6O10s         6O1pz         6O1py     
   43    6O1px         6O2pz         6O2py         6O2px         6O3pz         6O3py         6O3px         6O4pz         6O4py         6O4px     
   44    6O5pz         6O5py         6O5px         6O6pz         6O6py         6O6px         6O7pz         6O7py         6O7px         6O8pz     
   45    6O8py         6O8px         6O1d-2        6O1d-1        6O1d0         6O1d+1        6O1d+2        6O2d-2        6O2d-1        6O2d0     
   46    6O2d+1        6O2d+2        6O3d-2        6O3d-1        6O3d0         6O3d+1        6O3d+2        6O4d-2        6O4d-1        6O4d0     
   47    6O4d+1        6O4d+2        6O1f-3        6O1f-2        6O1f-1        6O1f0         6O1f+1        6O1f+2        6O1f+3        6O2f-3    
   48    6O2f-2        6O2f-1        6O2f0         6O2f+1        6O2f+2        6O2f+3        6O1g-4        6O1g-3        6O1g-2        6O1g-1    
   49    6O1g0         6O1g+1        6O1g+2        6O1g+3        6O1g+4        7O1s          7O2s          7O3s          7O4s          7O5s      
   50    7O6s          7O7s          7O8s          7O9s          7O10s         7O1pz         7O1py         7O1px         7O2pz         7O2py     
   51    7O2px         7O3pz         7O3py         7O3px         7O4pz         7O4py         7O4px         7O5pz         7O5py         7O5px     
   52    7O6pz         7O6py         7O6px         7O7pz         7O7py         7O7px         7O8pz         7O8py         7O8px         7O1d-2    
   53    7O1d-1        7O1d0         7O1d+1        7O1d+2        7O2d-2        7O2d-1        7O2d0         7O2d+1        7O2d+2        7O3d-2    
   54    7O3d-1        7O3d0         7O3d+1        7O3d+2        7O4d-2        7O4d-1        7O4d0         7O4d+1        7O4d+2        7O1f-3    
   55    7O1f-2        7O1f-1        7O1f0         7O1f+1        7O1f+2        7O1f+3        7O2f-3        7O2f-2        7O2f-1        7O2f0     
   56    7O2f+1        7O2f+2        7O2f+3        7O1g-4        7O1g-3        7O1g-2        7O1g-1        7O1g0         7O1g+1        7O1g+2    
   57    7O1g+3        7O1g+4        8O1s          8O2s          8O3s          8O4s          8O5s          8O6s          8O7s          8O8s      
   58    8O9s          8O10s         8O1pz         8O1py         8O1px         8O2pz         8O2py         8O2px         8O3pz         8O3py     
   59    8O3px         8O4pz         8O4py         8O4px         8O5pz         8O5py         8O5px         8O6pz         8O6py         8O6px     
   60    8O7pz         8O7py         8O7px         8O8pz         8O8py         8O8px         8O1d-2        8O1d-1        8O1d0         8O1d+1    
   61    8O1d+2        8O2d-2        8O2d-1        8O2d0         8O2d+1        8O2d+2        8O3d-2        8O3d-1        8O3d0         8O3d+1    
   62    8O3d+2        8O4d-2        8O4d-1        8O4d0         8O4d+1        8O4d+2        8O1f-3        8O1f-2        8O1f-1        8O1f0     
   63    8O1f+1        8O1f+2        8O1f+3        8O2f-3        8O2f-2        8O2f-1        8O2f0         8O2f+1        8O2f+2        8O2f+3    
   64    8O1g-4        8O1g-3        8O1g-2        8O1g-1        8O1g0         8O1g+1        8O1g+2        8O1g+3        8O1g+4    
 
 Maximum number of basis functions per shell:   35
 Total number of basis functions:    649
 
 
 Fitting basis set for the correlation calculation:
 
   1  C  aug-cc-pvdz-ri [ 8s 6p 5d 3f | 8s 6p 5d 3f ]
   2  O  aug-cc-pvdz-ri [ 8s 6p 5d 3f | 8s 6p 5d 3f ]
   3  Mg cc-pvdz-ri [ 9s 7p 5d 3f | 9s 7p 5d 3f ]
   4  O  aug-cc-pvdz-ri [ 8s 6p 5d 3f | 8s 6p 5d 3f ]
   5  O  aug-cc-pvdz-ri [ 8s 6p 5d 3f | 8s 6p 5d 3f ]
   6  O  aug-cc-pvdz-ri [ 8s 6p 5d 3f | 8s 6p 5d 3f ]
   7  O  aug-cc-pvdz-ri [ 8s 6p 5d 3f | 8s 6p 5d 3f ]
   8  O  aug-cc-pvdz-ri [ 8s 6p 5d 3f | 8s 6p 5d 3f ]
 
 Basis functions:
            1             2             3             4             5             6             7             8             9            10
    0    1C1s          1C2s          1C3s          1C4s          1C5s          1C6s          1C7s          1C8s          1C1pz         1C1py     
    1    1C1px         1C2pz         1C2py         1C2px         1C3pz         1C3py         1C3px         1C4pz         1C4py         1C4px     
    2    1C5pz         1C5py         1C5px         1C6pz         1C6py         1C6px         1C1d-2        1C1d-1        1C1d0         1C1d+1    
    3    1C1d+2        1C2d-2        1C2d-1        1C2d0         1C2d+1        1C2d+2        1C3d-2        1C3d-1        1C3d0         1C3d+1    
    4    1C3d+2        1C4d-2        1C4d-1        1C4d0         1C4d+1        1C4d+2        1C5d-2        1C5d-1        1C5d0         1C5d+1    
    5    1C5d+2        1C1f-3        1C1f-2        1C1f-1        1C1f0         1C1f+1        1C1f+2        1C1f+3        1C2f-3        1C2f-2    
    6    1C2f-1        1C2f0         1C2f+1        1C2f+2        1C2f+3        1C3f-3        1C3f-2        1C3f-1        1C3f0         1C3f+1    
    7    1C3f+2        1C3f+3        2O1s          2O2s          2O3s          2O4s          2O5s          2O6s          2O7s          2O8s      
    8    2O1pz         2O1py         2O1px         2O2pz         2O2py         2O2px         2O3pz         2O3py         2O3px         2O4pz     
    9    2O4py         2O4px         2O5pz         2O5py         2O5px         2O6pz         2O6py         2O6px         2O1d-2        2O1d-1    
   10    2O1d0         2O1d+1        2O1d+2        2O2d-2        2O2d-1        2O2d0         2O2d+1        2O2d+2        2O3d-2        2O3d-1    
   11    2O3d0         2O3d+1        2O3d+2        2O4d-2        2O4d-1        2O4d0         2O4d+1        2O4d+2        2O5d-2        2O5d-1    
   12    2O5d0         2O5d+1        2O5d+2        2O1f-3        2O1f-2        2O1f-1        2O1f0         2O1f+1        2O1f+2        2O1f+3    
   13    2O2f-3        2O2f-2        2O2f-1        2O2f0         2O2f+1        2O2f+2        2O2f+3        2O3f-3        2O3f-2        2O3f-1    
   14    2O3f0         2O3f+1        2O3f+2        2O3f+3        3Mg1s         3Mg2s         3Mg3s         3Mg4s         3Mg5s         3Mg6s     
   15    3Mg7s         3Mg8s         3Mg9s         3Mg1pz        3Mg1py        3Mg1px        3Mg2pz        3Mg2py        3Mg2px        3Mg3pz    
   16    3Mg3py        3Mg3px        3Mg4pz        3Mg4py        3Mg4px        3Mg5pz        3Mg5py        3Mg5px        3Mg6pz        3Mg6py    
   17    3Mg6px        3Mg7pz        3Mg7py        3Mg7px        3Mg1d-2       3Mg1d-1       3Mg1d0        3Mg1d+1       3Mg1d+2       3Mg2d-2   
   18    3Mg2d-1       3Mg2d0        3Mg2d+1       3Mg2d+2       3Mg3d-2       3Mg3d-1       3Mg3d0        3Mg3d+1       3Mg3d+2       3Mg4d-2   
   19    3Mg4d-1       3Mg4d0        3Mg4d+1       3Mg4d+2       3Mg5d-2       3Mg5d-1       3Mg5d0        3Mg5d+1       3Mg5d+2       3Mg1f-3   
   20    3Mg1f-2       3Mg1f-1       3Mg1f0        3Mg1f+1       3Mg1f+2       3Mg1f+3       3Mg2f-3       3Mg2f-2       3Mg2f-1       3Mg2f0    
   21    3Mg2f+1       3Mg2f+2       3Mg2f+3       3Mg3f-3       3Mg3f-2       3Mg3f-1       3Mg3f0        3Mg3f+1       3Mg3f+2       3Mg3f+3   
   22    4O1s          4O2s          4O3s          4O4s          4O5s          4O6s          4O7s          4O8s          4O1pz         4O1py     
   23    4O1px         4O2pz         4O2py         4O2px         4O3pz         4O3py         4O3px         4O4pz         4O4py         4O4px     
   24    4O5pz         4O5py         4O5px         4O6pz         4O6py         4O6px         4O1d-2        4O1d-1        4O1d0         4O1d+1    
   25    4O1d+2        4O2d-2        4O2d-1        4O2d0         4O2d+1        4O2d+2        4O3d-2        4O3d-1        4O3d0         4O3d+1    
   26    4O3d+2        4O4d-2        4O4d-1        4O4d0         4O4d+1        4O4d+2        4O5d-2        4O5d-1        4O5d0         4O5d+1    
   27    4O5d+2        4O1f-3        4O1f-2        4O1f-1        4O1f0         4O1f+1        4O1f+2        4O1f+3        4O2f-3        4O2f-2    
   28    4O2f-1        4O2f0         4O2f+1        4O2f+2        4O2f+3        4O3f-3        4O3f-2        4O3f-1        4O3f0         4O3f+1    
   29    4O3f+2        4O3f+3        5O1s          5O2s          5O3s          5O4s          5O5s          5O6s          5O7s          5O8s      
   30    5O1pz         5O1py         5O1px         5O2pz         5O2py         5O2px         5O3pz         5O3py         5O3px         5O4pz     
   31    5O4py         5O4px         5O5pz         5O5py         5O5px         5O6pz         5O6py         5O6px         5O1d-2        5O1d-1    
   32    5O1d0         5O1d+1        5O1d+2        5O2d-2        5O2d-1        5O2d0         5O2d+1        5O2d+2        5O3d-2        5O3d-1    
   33    5O3d0         5O3d+1        5O3d+2        5O4d-2        5O4d-1        5O4d0         5O4d+1        5O4d+2        5O5d-2        5O5d-1    
   34    5O5d0         5O5d+1        5O5d+2        5O1f-3        5O1f-2        5O1f-1        5O1f0         5O1f+1        5O1f+2        5O1f+3    
   35    5O2f-3        5O2f-2        5O2f-1        5O2f0         5O2f+1        5O2f+2        5O2f+3        5O3f-3        5O3f-2        5O3f-1    
   36    5O3f0         5O3f+1        5O3f+2        5O3f+3        6O1s          6O2s          6O3s          6O4s          6O5s          6O6s      
   37    6O7s          6O8s          6O1pz         6O1py         6O1px         6O2pz         6O2py         6O2px         6O3pz         6O3py     
   38    6O3px         6O4pz         6O4py         6O4px         6O5pz         6O5py         6O5px         6O6pz         6O6py         6O6px     
   39    6O1d-2        6O1d-1        6O1d0         6O1d+1        6O1d+2        6O2d-2        6O2d-1        6O2d0         6O2d+1        6O2d+2    
   40    6O3d-2        6O3d-1        6O3d0         6O3d+1        6O3d+2        6O4d-2        6O4d-1        6O4d0         6O4d+1        6O4d+2    
   41    6O5d-2        6O5d-1        6O5d0         6O5d+1        6O5d+2        6O1f-3        6O1f-2        6O1f-1        6O1f0         6O1f+1    
   42    6O1f+2        6O1f+3        6O2f-3        6O2f-2        6O2f-1        6O2f0         6O2f+1        6O2f+2        6O2f+3        6O3f-3    
   43    6O3f-2        6O3f-1        6O3f0         6O3f+1        6O3f+2        6O3f+3        7O1s          7O2s          7O3s          7O4s      
   44    7O5s          7O6s          7O7s          7O8s          7O1pz         7O1py         7O1px         7O2pz         7O2py         7O2px     
   45    7O3pz         7O3py         7O3px         7O4pz         7O4py         7O4px         7O5pz         7O5py         7O5px         7O6pz     
   46    7O6py         7O6px         7O1d-2        7O1d-1        7O1d0         7O1d+1        7O1d+2        7O2d-2        7O2d-1        7O2d0     
   47    7O2d+1        7O2d+2        7O3d-2        7O3d-1        7O3d0         7O3d+1        7O3d+2        7O4d-2        7O4d-1        7O4d0     
   48    7O4d+1        7O4d+2        7O5d-2        7O5d-1        7O5d0         7O5d+1        7O5d+2        7O1f-3        7O1f-2        7O1f-1    
   49    7O1f0         7O1f+1        7O1f+2        7O1f+3        7O2f-3        7O2f-2        7O2f-1        7O2f0         7O2f+1        7O2f+2    
   50    7O2f+3        7O3f-3        7O3f-2        7O3f-1        7O3f0         7O3f+1        7O3f+2        7O3f+3        8O1s          8O2s      
   51    8O3s          8O4s          8O5s          8O6s          8O7s          8O8s          8O1pz         8O1py         8O1px         8O2pz     
   52    8O2py         8O2px         8O3pz         8O3py         8O3px         8O4pz         8O4py         8O4px         8O5pz         8O5py     
   53    8O5px         8O6pz         8O6py         8O6px         8O1d-2        8O1d-1        8O1d0         8O1d+1        8O1d+2        8O2d-2    
   54    8O2d-1        8O2d0         8O2d+1        8O2d+2        8O3d-2        8O3d-1        8O3d0         8O3d+1        8O3d+2        8O4d-2    
   55    8O4d-1        8O4d0         8O4d+1        8O4d+2        8O5d-2        8O5d-1        8O5d0         8O5d+1        8O5d+2        8O1f-3    
   56    8O1f-2        8O1f-1        8O1f0         8O1f+1        8O1f+2        8O1f+3        8O2f-3        8O2f-2        8O2f-1        8O2f0     
   57    8O2f+1        8O2f+2        8O2f+3        8O3f-3        8O3f-2        8O3f-1        8O3f0         8O3f+1        8O3f+2        8O3f+3    
 
 Maximum number of basis functions per shell:   35
 Total number of basis functions:    580
 
 
 Old basis set for SCF restart
 
   1  C  def2-svp [ 7s 4p 1d | 3s 2p 1d ]
   2  O  def2-svp [ 7s 4p 1d | 3s 2p 1d ]
   3  Mg def2-svp [ 10s 7p 1d | 4s 3p 1d ]
   4  O  def2-svp [ 7s 4p 1d | 3s 2p 1d ]
   5  O  def2-svp [ 7s 4p 1d | 3s 2p 1d ]
   6  O  def2-svp [ 7s 4p 1d | 3s 2p 1d ]
   7  O  def2-svp [ 7s 4p 1d | 3s 2p 1d ]
   8  O  def2-svp [ 7s 4p 1d | 3s 2p 1d ]
 
 Basis functions:
            1             2             3             4             5             6             7             8             9            10
    0    1C1s          1C2s          1C3s          1C1pz         1C1py         1C1px         1C2pz         1C2py         1C2px         1C1d-2    
    1    1C1d-1        1C1d0         1C1d+1        1C1d+2        2O1s          2O2s          2O3s          2O1pz         2O1py         2O1px     
    2    2O2pz         2O2py         2O2px         2O1d-2        2O1d-1        2O1d0         2O1d+1        2O1d+2        3Mg1s         3Mg2s     
    3    3Mg3s         3Mg4s         3Mg1pz        3Mg1py        3Mg1px        3Mg2pz        3Mg2py        3Mg2px        3Mg3pz        3Mg3py    
    4    3Mg3px        3Mg1d-2       3Mg1d-1       3Mg1d0        3Mg1d+1       3Mg1d+2       4O1s          4O2s          4O3s          4O1pz     
    5    4O1py         4O1px         4O2pz         4O2py         4O2px         4O1d-2        4O1d-1        4O1d0         4O1d+1        4O1d+2    
    6    5O1s          5O2s          5O3s          5O1pz         5O1py         5O1px         5O2pz         5O2py         5O2px         5O1d-2    
    7    5O1d-1        5O1d0         5O1d+1        5O1d+2        6O1s          6O2s          6O3s          6O1pz         6O1py         6O1px     
    8    6O2pz         6O2py         6O2px         6O1d-2        6O1d-1        6O1d0         6O1d+1        6O1d+2        7O1s          7O2s      
    9    7O3s          7O1pz         7O1py         7O1px         7O2pz         7O2py         7O2px         7O1d-2        7O1d-1        7O1d0     
   10    7O1d+1        7O1d+2        8O1s          8O2s          8O3s          8O1pz         8O1py         8O1px         8O2pz         8O2py     
   11    8O2px         8O1d-2        8O1d-1        8O1d0         8O1d+1        8O1d+2    
 
 Maximum number of basis functions per shell:   35
 Total number of basis functions:    116
 
 
 Character table for point group C1:
 
          E  
    A     1
 
 Number of basis functions per irrep:
    A     179
 
 
 Calculation of overlap integrals...
 CPU time [min]:     0.119                   Wall time [min]:     0.006
 
 Calculation of the square root of the overlap matrix...
 Minimum eigenvalue of the overlap matrix: 0.243895E-03
 CPU time [min]:     0.142                   Wall time [min]:     0.007
 
 Calculation of kinetic energy integrals...
 CPU time [min]:     0.143                   Wall time [min]:     0.007
 Calculation of dipole moment integrals...
 CPU time [min]:     0.144                   Wall time [min]:     0.007
 Calculation of nuclear attraction integrals...
 CPU time [min]:     0.147                   Wall time [min]:     0.007
 Calculation of overlap integrals...
 CPU time [min]:     0.149                   Wall time [min]:     0.007
 
 Calculation of prescreening integrals...
 CPU time [min]:     0.321                   Wall time [min]:     0.012
 
 Calculation of two-center Coulomb integrals...
   1% done.
  12% done.
  24% done.
  37% done.
  49% done.
  61% done.
  72% done.
  87% done.
 100% done.
 CPU time [min]:     0.330                   Wall time [min]:     0.012
 
 Cholesky decomposition of the two-center matrix...
 Reciprocal of the condition number:  0.536328E-05
 CPU time [min]:     0.345                   Wall time [min]:     0.013
 

 ************************ 2023-04-26 04:14:21 *************************
 Executing scf...

 @scfsetup: integrals calculated directly
            mrcc/integ direct run
 @scfsetup: calculating on full matrices
            not using symmetry adapted basis
 @scfsetup: diis switched on
 @scfsetup: number of steps to extrapolate from  10
 @scfsetup: tolerance in energy deviation    0.100000E-05
            tolerance in density deviation    0.100000E-06
 @scfsetup: maximum number of iterations:1000
 @scfsetup: restricted closed shell hf calc
 @scfsetup: restarting scf from SCFDENSITIES file
 @scfsetup: occupation set:
            from initial orbitals
 @scfsetup: Parameter-set for SCF acceleration: normal
 @scfsetup: diis runs from iteration:   2
 @scfsetup: diis runs to iteration:1000
 @scfsetup: diis runs in every iteration
 @scfsetup: diiswatch is disabled                   
 @scfsetup: diis dtol criteria to switch on:      0.0000E+00
           (or the iteration number below is reached)
 @scfsetup: static damping scheme
            iteration step criteria to turn damping off: 3
 @scfsetup: dynamic level shifting
            tolarance in HOMO-LUMO gap:  0.200
            tolarance in density deviation:     0.0000E+00
            iteration step criteria to turn level shifting off: 8
 Allocation of 200.0 Gbytes of memory...
 ======================================================================
 ITERATION STEP   1
 CPU time [min]:     0.038                   Wall time [min]:     0.009
 

 SCF control                  : initial
 Damping factor/level shift   : 0.000/0.200
 DIIS [start/end/frequency]   :   2 /*** /  1

 Constructing Fock-matrix...
 
 Pipek-Mezey localization...
 Step  Convergence
   1   1.838163896916
   2   0.965212245889
   3   0.037411401488
   4   0.000126967809
   5   0.000000001786
 CPU time [min]:     0.058                   Wall time [min]:     0.009
 
 Constructing local fitting domains...
 Maximum number of atoms in fitting domains:    8
 Average number of atoms in fitting domains:    7.9
 
 First step of Coulomb + first step of exchange...
 Exchange contribution is evaluated for MOs 1 to 7.
   1% done.
  13% done.
  24% done.
  38% done.
  55% done.
  67% done.
  80% done.
 100% done.
 Fitting and assembly step of exchange...
 CPU time [min]:     0.168                   Wall time [min]:     0.012
 
 Second step of Coulomb...
   1% done.
  13% done.
  24% done.
  38% done.
  55% done.
  67% done.
  80% done.
 100% done.
 CPU time [min]:     0.200                   Wall time [min]:     0.013
 
 Gradient norm:      1.6833E-01
 RMS of [F,P]:                                         0.00225502589996
 RMS of difference density:                            0.00498397830867
 Gap [au]:  0.60156026
 ALPHA OCC:   7
 BETA  OCC:   7
 
 ***HARTREE-FOCK ENERGY IN STEP   1 IS       -112.7433374421766104 [AU]
 ======================================================================
 ITERATION STEP   2
 CPU time [min]:     0.215                   Wall time [min]:     0.014
 

 SCF control                  : diis
 Damping factor/level shift   : 0.000/0.000
 DIIS [start/end/frequency]   :   2 /*** /  1

 Constructing Fock-matrix...
 
 Pipek-Mezey localization...
 Step  Convergence
   1   0.060252225948
   2   0.064671546164
   3   0.000696260317
   4   0.000000000659
 CPU time [min]:     0.233                   Wall time [min]:     0.014
 
 Constructing local fitting domains...
 Maximum number of atoms in fitting domains:    8
 Average number of atoms in fitting domains:    7.9
 
 First step of Coulomb + first step of exchange...
 Exchange contribution is evaluated for MOs 1 to 7.
   1% done.
  13% done.
  24% done.
  38% done.
  55% done.
  67% done.
  80% done.
 100% done.
 Fitting and assembly step of exchange...
 CPU time [min]:     0.339                   Wall time [min]:     0.017
 
 Second step of Coulomb...
   1% done.
  13% done.
  24% done.
  38% done.
  55% done.
  67% done.
  80% done.
 100% done.
 CPU time [min]:     0.370                   Wall time [min]:     0.018
 
 Gradient norm:      2.0079E-02
 DIIS is running in this iteration step.
 RMS of [F,P]:                                         0.00023621422793
 RMS of difference density:                            0.00051581548623
 Gap [au]:  0.59615144
 ALPHA OCC:   7
 BETA  OCC:   7
 
 ***HARTREE-FOCK ENERGY IN STEP   2 IS       -112.7524972544710380 [AU]
 
 Step comparison  Energy Drift [au]  DIIS error drift  Gradient drift
        1            9.1598E-03         2.0188E-03       1.4825E-01
        2            1.1275E+02         1.0000E-07       1.4825E-01
 ======================================================================
 ITERATION STEP   3
 CPU time [min]:     0.410                   Wall time [min]:     0.019
 

 SCF control                  : diis
 Damping factor/level shift   : 0.000/0.000
 DIIS [start/end/frequency]   :   2 /*** /  1

 Constructing Fock-matrix...
 
 Pipek-Mezey localization...
 Step  Convergence
   1   0.554148111576
   2   0.095638306616
   3   0.000655391908
   4   0.000000082724
 CPU time [min]:     0.427                   Wall time [min]:     0.020
 
 Constructing local fitting domains...
 Local fitting domains are unchanged.
 
 First step of Coulomb + first step of exchange...
 Exchange contribution is evaluated for MOs 1 to 7.
   1% done.
  13% done.
  24% done.
  38% done.
  55% done.
  67% done.
  80% done.
 100% done.
 Fitting and assembly step of exchange...
 CPU time [min]:     0.533                   Wall time [min]:     0.023
 
 Second step of Coulomb...
   1% done.
  13% done.
  24% done.
  38% done.
  55% done.
  67% done.
  80% done.
 100% done.
 CPU time [min]:     0.564                   Wall time [min]:     0.024
 
 Gradient norm:      4.0613E-03
 DIIS is running in this iteration step.
 RMS of [F,P]:                                         0.00005172244409
 RMS of difference density:                            0.00013993643755
 Gap [au]:  0.59844079
 ALPHA OCC:   7
 BETA  OCC:   7
 
 ***HARTREE-FOCK ENERGY IN STEP   3 IS       -112.7527892277088597 [AU]
 
 Step comparison  Energy Drift [au]  DIIS error drift  Gradient drift
        2            2.9197E-04         1.8449E-04       1.6018E-02
 ======================================================================
 ITERATION STEP   4
 CPU time [min]:     0.577                   Wall time [min]:     0.024
 

 SCF control                  : diis
 Damping factor/level shift   : 0.000/0.000
 DIIS [start/end/frequency]   :   2 /*** /  1

 Constructing Fock-matrix...
 
 Pipek-Mezey localization...
 Step  Convergence
   1   0.586929019317
   2   0.497661239423
   3   0.004615368036
   4   0.000000065641
   5   0.000000000010
   6   0.000000000000
[...]
   21    3Mg4d+1       3Mg4d+2       3Mg5d-2       3Mg5d-1       3Mg5d0        3Mg5d+1       3Mg5d+2       3Mg6d-2       3Mg6d-1       3Mg6d0    
   22    3Mg6d+1       3Mg6d+2       3Mg7d-2       3Mg7d-1       3Mg7d0        3Mg7d+1       3Mg7d+2       3Mg1f-3       3Mg1f-2       3Mg1f-1   
   23    3Mg1f0        3Mg1f+1       3Mg1f+2       3Mg1f+3       3Mg2f-3       3Mg2f-2       3Mg2f-1       3Mg2f0        3Mg2f+1       3Mg2f+2   
   24    3Mg2f+3       3Mg3f-3       3Mg3f-2       3Mg3f-1       3Mg3f0        3Mg3f+1       3Mg3f+2       3Mg3f+3       3Mg4f-3       3Mg4f-2   
   25    3Mg4f-1       3Mg4f0        3Mg4f+1       3Mg4f+2       3Mg4f+3       3Mg1g-4       3Mg1g-3       3Mg1g-2       3Mg1g-1       3Mg1g0    
   26    3Mg1g+1       3Mg1g+2       3Mg1g+3       3Mg1g+4       4O1s          4O2s          4O3s          4O4s          4O5s          4O6s      
   27    4O7s          4O8s          4O9s          4O10s         4O1pz         4O1py         4O1px         4O2pz         4O2py         4O2px     
   28    4O3pz         4O3py         4O3px         4O4pz         4O4py         4O4px         4O5pz         4O5py         4O5px         4O6pz     
   29    4O6py         4O6px         4O7pz         4O7py         4O7px         4O8pz         4O8py         4O8px         4O1d-2        4O1d-1    
   30    4O1d0         4O1d+1        4O1d+2        4O2d-2        4O2d-1        4O2d0         4O2d+1        4O2d+2        4O3d-2        4O3d-1    
   31    4O3d0         4O3d+1        4O3d+2        4O4d-2        4O4d-1        4O4d0         4O4d+1        4O4d+2        4O1f-3        4O1f-2    
   32    4O1f-1        4O1f0         4O1f+1        4O1f+2        4O1f+3        4O2f-3        4O2f-2        4O2f-1        4O2f0         4O2f+1    
   33    4O2f+2        4O2f+3        4O1g-4        4O1g-3        4O1g-2        4O1g-1        4O1g0         4O1g+1        4O1g+2        4O1g+3    
   34    4O1g+4        5O1s          5O2s          5O3s          5O4s          5O5s          5O6s          5O7s          5O8s          5O9s      
   35    5O10s         5O1pz         5O1py         5O1px         5O2pz         5O2py         5O2px         5O3pz         5O3py         5O3px     
   36    5O4pz         5O4py         5O4px         5O5pz         5O5py         5O5px         5O6pz         5O6py         5O6px         5O7pz     
   37    5O7py         5O7px         5O8pz         5O8py         5O8px         5O1d-2        5O1d-1        5O1d0         5O1d+1        5O1d+2    
   38    5O2d-2        5O2d-1        5O2d0         5O2d+1        5O2d+2        5O3d-2        5O3d-1        5O3d0         5O3d+1        5O3d+2    
   39    5O4d-2        5O4d-1        5O4d0         5O4d+1        5O4d+2        5O1f-3        5O1f-2        5O1f-1        5O1f0         5O1f+1    
   40    5O1f+2        5O1f+3        5O2f-3        5O2f-2        5O2f-1        5O2f0         5O2f+1        5O2f+2        5O2f+3        5O1g-4    
   41    5O1g-3        5O1g-2        5O1g-1        5O1g0         5O1g+1        5O1g+2        5O1g+3        5O1g+4        6O1s          6O2s      
   42    6O3s          6O4s          6O5s          6O6s          6O7s          6O8s          6O9s          6O10s         6O1pz         6O1py     
   43    6O1px         6O2pz         6O2py         6O2px         6O3pz         6O3py         6O3px         6O4pz         6O4py         6O4px     
   44    6O5pz         6O5py         6O5px         6O6pz         6O6py         6O6px         6O7pz         6O7py         6O7px         6O8pz     
   45    6O8py         6O8px         6O1d-2        6O1d-1        6O1d0         6O1d+1        6O1d+2        6O2d-2        6O2d-1        6O2d0     
   46    6O2d+1        6O2d+2        6O3d-2        6O3d-1        6O3d0         6O3d+1        6O3d+2        6O4d-2        6O4d-1        6O4d0     
   47    6O4d+1        6O4d+2        6O1f-3        6O1f-2        6O1f-1        6O1f0         6O1f+1        6O1f+2        6O1f+3        6O2f-3    
   48    6O2f-2        6O2f-1        6O2f0         6O2f+1        6O2f+2        6O2f+3        6O1g-4        6O1g-3        6O1g-2        6O1g-1    
   49    6O1g0         6O1g+1        6O1g+2        6O1g+3        6O1g+4        7O1s          7O2s          7O3s          7O4s          7O5s      
   50    7O6s          7O7s          7O8s          7O9s          7O10s         7O1pz         7O1py         7O1px         7O2pz         7O2py     
   51    7O2px         7O3pz         7O3py         7O3px         7O4pz         7O4py         7O4px         7O5pz         7O5py         7O5px     
   52    7O6pz         7O6py         7O6px         7O7pz         7O7py         7O7px         7O8pz         7O8py         7O8px         7O1d-2    
   53    7O1d-1        7O1d0         7O1d+1        7O1d+2        7O2d-2        7O2d-1        7O2d0         7O2d+1        7O2d+2        7O3d-2    
   54    7O3d-1        7O3d0         7O3d+1        7O3d+2        7O4d-2        7O4d-1        7O4d0         7O4d+1        7O4d+2        7O1f-3    
   55    7O1f-2        7O1f-1        7O1f0         7O1f+1        7O1f+2        7O1f+3        7O2f-3        7O2f-2        7O2f-1        7O2f0     
   56    7O2f+1        7O2f+2        7O2f+3        7O1g-4        7O1g-3        7O1g-2        7O1g-1        7O1g0         7O1g+1        7O1g+2    
   57    7O1g+3        7O1g+4        8O1s          8O2s          8O3s          8O4s          8O5s          8O6s          8O7s          8O8s      
   58    8O9s          8O10s         8O1pz         8O1py         8O1px         8O2pz         8O2py         8O2px         8O3pz         8O3py     
   59    8O3px         8O4pz         8O4py         8O4px         8O5pz         8O5py         8O5px         8O6pz         8O6py         8O6px     
   60    8O7pz         8O7py         8O7px         8O8pz         8O8py         8O8px         8O1d-2        8O1d-1        8O1d0         8O1d+1    
   61    8O1d+2        8O2d-2        8O2d-1        8O2d0         8O2d+1        8O2d+2        8O3d-2        8O3d-1        8O3d0         8O3d+1    
   62    8O3d+2        8O4d-2        8O4d-1        8O4d0         8O4d+1        8O4d+2        8O1f-3        8O1f-2        8O1f-1        8O1f0     
   63    8O1f+1        8O1f+2        8O1f+3        8O2f-3        8O2f-2        8O2f-1        8O2f0         8O2f+1        8O2f+2        8O2f+3    
   64    8O1g-4        8O1g-3        8O1g-2        8O1g-1        8O1g0         8O1g+1        8O1g+2        8O1g+3        8O1g+4    
 
 Maximum number of basis functions per shell:   35
 Total number of basis functions:    649
 
 
 Fitting basis set for the correlation calculation:
 
   1  C  aug-cc-pvdz-ri [ 8s 6p 5d 3f | 8s 6p 5d 3f ]
   2  O  aug-cc-pvdz-ri [ 8s 6p 5d 3f | 8s 6p 5d 3f ]
   3  Mg cc-pvdz-ri [ 9s 7p 5d 3f | 9s 7p 5d 3f ]
   4  O  aug-cc-pvdz-ri [ 8s 6p 5d 3f | 8s 6p 5d 3f ]
   5  O  aug-cc-pvdz-ri [ 8s 6p 5d 3f | 8s 6p 5d 3f ]
   6  O  aug-cc-pvdz-ri [ 8s 6p 5d 3f | 8s 6p 5d 3f ]
   7  O  aug-cc-pvdz-ri [ 8s 6p 5d 3f | 8s 6p 5d 3f ]
   8  O  aug-cc-pvdz-ri [ 8s 6p 5d 3f | 8s 6p 5d 3f ]
 
 Basis functions:
            1             2             3             4             5             6             7             8             9            10
    0    1C1s          1C2s          1C3s          1C4s          1C5s          1C6s          1C7s          1C8s          1C1pz         1C1py     
    1    1C1px         1C2pz         1C2py         1C2px         1C3pz         1C3py         1C3px         1C4pz         1C4py         1C4px     
    2    1C5pz         1C5py         1C5px         1C6pz         1C6py         1C6px         1C1d-2        1C1d-1        1C1d0         1C1d+1    
    3    1C1d+2        1C2d-2        1C2d-1        1C2d0         1C2d+1        1C2d+2        1C3d-2        1C3d-1        1C3d0         1C3d+1    
    4    1C3d+2        1C4d-2        1C4d-1        1C4d0         1C4d+1        1C4d+2        1C5d-2        1C5d-1        1C5d0         1C5d+1    
    5    1C5d+2        1C1f-3        1C1f-2        1C1f-1        1C1f0         1C1f+1        1C1f+2        1C1f+3        1C2f-3        1C2f-2    
    6    1C2f-1        1C2f0         1C2f+1        1C2f+2        1C2f+3        1C3f-3        1C3f-2        1C3f-1        1C3f0         1C3f+1    
    7    1C3f+2        1C3f+3        2O1s          2O2s          2O3s          2O4s          2O5s          2O6s          2O7s          2O8s      
    8    2O1pz         2O1py         2O1px         2O2pz         2O2py         2O2px         2O3pz         2O3py         2O3px         2O4pz     
    9    2O4py         2O4px         2O5pz         2O5py         2O5px         2O6pz         2O6py         2O6px         2O1d-2        2O1d-1    
   10    2O1d0         2O1d+1        2O1d+2        2O2d-2        2O2d-1        2O2d0         2O2d+1        2O2d+2        2O3d-2        2O3d-1    
   11    2O3d0         2O3d+1        2O3d+2        2O4d-2        2O4d-1        2O4d0         2O4d+1        2O4d+2        2O5d-2        2O5d-1    
   12    2O5d0         2O5d+1        2O5d+2        2O1f-3        2O1f-2        2O1f-1        2O1f0         2O1f+1        2O1f+2        2O1f+3    
   13    2O2f-3        2O2f-2        2O2f-1        2O2f0         2O2f+1        2O2f+2        2O2f+3        2O3f-3        2O3f-2        2O3f-1    
   14    2O3f0         2O3f+1        2O3f+2        2O3f+3        3Mg1s         3Mg2s         3Mg3s         3Mg4s         3Mg5s         3Mg6s     
   15    3Mg7s         3Mg8s         3Mg9s         3Mg1pz        3Mg1py        3Mg1px        3Mg2pz        3Mg2py        3Mg2px        3Mg3pz    
   16    3Mg3py        3Mg3px        3Mg4pz        3Mg4py        3Mg4px        3Mg5pz        3Mg5py        3Mg5px        3Mg6pz        3Mg6py    
   17    3Mg6px        3Mg7pz        3Mg7py        3Mg7px        3Mg1d-2       3Mg1d-1       3Mg1d0        3Mg1d+1       3Mg1d+2       3Mg2d-2   
   18    3Mg2d-1       3Mg2d0        3Mg2d+1       3Mg2d+2       3Mg3d-2       3Mg3d-1       3Mg3d0        3Mg3d+1       3Mg3d+2       3Mg4d-2   
   19    3Mg4d-1       3Mg4d0        3Mg4d+1       3Mg4d+2       3Mg5d-2       3Mg5d-1       3Mg5d0        3Mg5d+1       3Mg5d+2       3Mg1f-3   
   20    3Mg1f-2       3Mg1f-1       3Mg1f0        3Mg1f+1       3Mg1f+2       3Mg1f+3       3Mg2f-3       3Mg2f-2       3Mg2f-1       3Mg2f0    
   21    3Mg2f+1       3Mg2f+2       3Mg2f+3       3Mg3f-3       3Mg3f-2       3Mg3f-1       3Mg3f0        3Mg3f+1       3Mg3f+2       3Mg3f+3   
   22    4O1s          4O2s          4O3s          4O4s          4O5s          4O6s          4O7s          4O8s          4O1pz         4O1py     
   23    4O1px         4O2pz         4O2py         4O2px         4O3pz         4O3py         4O3px         4O4pz         4O4py         4O4px     
   24    4O5pz         4O5py         4O5px         4O6pz         4O6py         4O6px         4O1d-2        4O1d-1        4O1d0         4O1d+1    
   25    4O1d+2        4O2d-2        4O2d-1        4O2d0         4O2d+1        4O2d+2        4O3d-2        4O3d-1        4O3d0         4O3d+1    
   26    4O3d+2        4O4d-2        4O4d-1        4O4d0         4O4d+1        4O4d+2        4O5d-2        4O5d-1        4O5d0         4O5d+1    
   27    4O5d+2        4O1f-3        4O1f-2        4O1f-1        4O1f0         4O1f+1        4O1f+2        4O1f+3        4O2f-3        4O2f-2    
   28    4O2f-1        4O2f0         4O2f+1        4O2f+2        4O2f+3        4O3f-3        4O3f-2        4O3f-1        4O3f0         4O3f+1    
   29    4O3f+2        4O3f+3        5O1s          5O2s          5O3s          5O4s          5O5s          5O6s          5O7s          5O8s      
   30    5O1pz         5O1py         5O1px         5O2pz         5O2py         5O2px         5O3pz         5O3py         5O3px         5O4pz     
   31    5O4py         5O4px         5O5pz         5O5py         5O5px         5O6pz         5O6py         5O6px         5O1d-2        5O1d-1    
   32    5O1d0         5O1d+1        5O1d+2        5O2d-2        5O2d-1        5O2d0         5O2d+1        5O2d+2        5O3d-2        5O3d-1    
   33    5O3d0         5O3d+1        5O3d+2        5O4d-2        5O4d-1        5O4d0         5O4d+1        5O4d+2        5O5d-2        5O5d-1    
   34    5O5d0         5O5d+1        5O5d+2        5O1f-3        5O1f-2        5O1f-1        5O1f0         5O1f+1        5O1f+2        5O1f+3    
   35    5O2f-3        5O2f-2        5O2f-1        5O2f0         5O2f+1        5O2f+2        5O2f+3        5O3f-3        5O3f-2        5O3f-1    
   36    5O3f0         5O3f+1        5O3f+2        5O3f+3        6O1s          6O2s          6O3s          6O4s          6O5s          6O6s      
   37    6O7s          6O8s          6O1pz         6O1py         6O1px         6O2pz         6O2py         6O2px         6O3pz         6O3py     
   38    6O3px         6O4pz         6O4py         6O4px         6O5pz         6O5py         6O5px         6O6pz         6O6py         6O6px     
   39    6O1d-2        6O1d-1        6O1d0         6O1d+1        6O1d+2        6O2d-2        6O2d-1        6O2d0         6O2d+1        6O2d+2    
   40    6O3d-2        6O3d-1        6O3d0         6O3d+1        6O3d+2        6O4d-2        6O4d-1        6O4d0         6O4d+1        6O4d+2    
   41    6O5d-2        6O5d-1        6O5d0         6O5d+1        6O5d+2        6O1f-3        6O1f-2        6O1f-1        6O1f0         6O1f+1    
   42    6O1f+2        6O1f+3        6O2f-3        6O2f-2        6O2f-1        6O2f0         6O2f+1        6O2f+2        6O2f+3        6O3f-3    
   43    6O3f-2        6O3f-1        6O3f0         6O3f+1        6O3f+2        6O3f+3        7O1s          7O2s          7O3s          7O4s      
   44    7O5s          7O6s          7O7s          7O8s          7O1pz         7O1py         7O1px         7O2pz         7O2py         7O2px     
   45    7O3pz         7O3py         7O3px         7O4pz         7O4py         7O4px         7O5pz         7O5py         7O5px         7O6pz     
   46    7O6py         7O6px         7O1d-2        7O1d-1        7O1d0         7O1d+1        7O1d+2        7O2d-2        7O2d-1        7O2d0     
   47    7O2d+1        7O2d+2        7O3d-2        7O3d-1        7O3d0         7O3d+1        7O3d+2        7O4d-2        7O4d-1        7O4d0     
   48    7O4d+1        7O4d+2        7O5d-2        7O5d-1        7O5d0         7O5d+1        7O5d+2        7O1f-3        7O1f-2        7O1f-1    
   49    7O1f0         7O1f+1        7O1f+2        7O1f+3        7O2f-3        7O2f-2        7O2f-1        7O2f0         7O2f+1        7O2f+2    
   50    7O2f+3        7O3f-3        7O3f-2        7O3f-1        7O3f0         7O3f+1        7O3f+2        7O3f+3        8O1s          8O2s      
   51    8O3s          8O4s          8O5s          8O6s          8O7s          8O8s          8O1pz         8O1py         8O1px         8O2pz     
   52    8O2py         8O2px         8O3pz         8O3py         8O3px         8O4pz         8O4py         8O4px         8O5pz         8O5py     
   53    8O5px         8O6pz         8O6py         8O6px         8O1d-2        8O1d-1        8O1d0         8O1d+1        8O1d+2        8O2d-2    
   54    8O2d-1        8O2d0         8O2d+1        8O2d+2        8O3d-2        8O3d-1        8O3d0         8O3d+1        8O3d+2        8O4d-2    
   55    8O4d-1        8O4d0         8O4d+1        8O4d+2        8O5d-2        8O5d-1        8O5d0         8O5d+1        8O5d+2        8O1f-3    
   56    8O1f-2        8O1f-1        8O1f0         8O1f+1        8O1f+2        8O1f+3        8O2f-3        8O2f-2        8O2f-1        8O2f0     
   57    8O2f+1        8O2f+2        8O2f+3        8O3f-3        8O3f-2        8O3f-1        8O3f0         8O3f+1        8O3f+2        8O3f+3    
 
 Maximum number of basis functions per shell:   35
 Total number of basis functions:    580
 
 
 Old basis set for SCF restart
 
   1  C  def2-svp [ 7s 4p 1d | 3s 2p 1d ]
   2  O  def2-svp [ 7s 4p 1d | 3s 2p 1d ]
   3  Mg def2-svp [ 10s 7p 1d | 4s 3p 1d ]
   4  O  def2-svp [ 7s 4p 1d | 3s 2p 1d ]
   5  O  def2-svp [ 7s 4p 1d | 3s 2p 1d ]
   6  O  def2-svp [ 7s 4p 1d | 3s 2p 1d ]
   7  O  def2-svp [ 7s 4p 1d | 3s 2p 1d ]
   8  O  def2-svp [ 7s 4p 1d | 3s 2p 1d ]
 
 Basis functions:
            1             2             3             4             5             6             7             8             9            10
    0    1C1s          1C2s          1C3s          1C1pz         1C1py         1C1px         1C2pz         1C2py         1C2px         1C1d-2    
    1    1C1d-1        1C1d0         1C1d+1        1C1d+2        2O1s          2O2s          2O3s          2O1pz         2O1py         2O1px     
    2    2O2pz         2O2py         2O2px         2O1d-2        2O1d-1        2O1d0         2O1d+1        2O1d+2        3Mg1s         3Mg2s     
    3    3Mg3s         3Mg4s         3Mg1pz        3Mg1py        3Mg1px        3Mg2pz        3Mg2py        3Mg2px        3Mg3pz        3Mg3py    
    4    3Mg3px        3Mg1d-2       3Mg1d-1       3Mg1d0        3Mg1d+1       3Mg1d+2       4O1s          4O2s          4O3s          4O1pz     
    5    4O1py         4O1px         4O2pz         4O2py         4O2px         4O1d-2        4O1d-1        4O1d0         4O1d+1        4O1d+2    
    6    5O1s          5O2s          5O3s          5O1pz         5O1py         5O1px         5O2pz         5O2py         5O2px         5O1d-2    
    7    5O1d-1        5O1d0         5O1d+1        5O1d+2        6O1s          6O2s          6O3s          6O1pz         6O1py         6O1px     
    8    6O2pz         6O2py         6O2px         6O1d-2        6O1d-1        6O1d0         6O1d+1        6O1d+2        7O1s          7O2s      
    9    7O3s          7O1pz         7O1py         7O1px         7O2pz         7O2py         7O2px         7O1d-2        7O1d-1        7O1d0     
   10    7O1d+1        7O1d+2        8O1s          8O2s          8O3s          8O1pz         8O1py         8O1px         8O2pz         8O2py     
   11    8O2px         8O1d-2        8O1d-1        8O1d0         8O1d+1        8O1d+2    
 
 Maximum number of basis functions per shell:   35
 Total number of basis functions:    116
 
 
 Calculation of prescreening integrals...
 CPU time [min]:     0.172                   Wall time [min]:     0.010
 
 Calculation of two-center Coulomb integrals...
   1% done.
  12% done.
  25% done.
  39% done.
  51% done.
  63% done.
  77% done.
  93% done.
 100% done.
 CPU time [min]:     0.207                   Wall time [min]:     0.011
 
 Cholesky decomposition of the inverse of the two-center matrix...
 CPU time [min]:     0.286                   Wall time [min]:     0.014
 
 Calculation of three-center Coulomb integrals...
   1% done.
  13% done.
  24% done.
  38% done.
  55% done.
  67% done.
  80% done.
 100% done.
 CPU time [min]:     0.476                   Wall time [min]:     0.020

 ************************ 2023-04-26 04:14:25 *************************
 Executing drpa...

 Three-index integral transformation and DF-MP2 calculation
 
 Allocation of 200.0 Gbytes of memory...
 Minimal memory requirement for (ai|P) integrals:        9.1 MB

 Calculating (ai|P) integrals...
 Number of integral batches:    1
 Occupied indices per batch:    5
 
 Transforming integrals of batch 1...
 CPU time [min]:     0.149                   Wall time [min]:     0.015
 
 
 
 Reference energy [au]:                      -112.752807523038
 DF-MP2 singlet pair energy [au]:              -0.223179638400
 DF-MP2 triplet pair energy [au]:              -0.080274921986
 DF-SCS-MP2 correlation energy [au]:           -0.294573873408
 DF-SCS-MP2 energy [au]:                     -113.047381396446
 DF-SOS-MP2 correlation energy [au]:           -0.290133529919
 DF-SOS-MP2 energy [au]:                     -113.042941052957
 DF-MP2 correlation energy [au]:               -0.303454560385
 DF-MP2 energy [au]:                         -113.056262083423
 
 ************************ 2023-04-26 04:14:27 *************************
                      Normal termination of mrcc.
 **********************************************************************
