 vasp.6.3.0 20Jan22 (build Apr  1 2022 16:44:48) complex                         
 executed on        HPECrayEX_GCC date 2022.12.19  14:33:02
 running  512 mpi-ranks, with    1 threads/rank
 distrk:  each k-point on  512 cores,    1 groups
 distr:  one band on NCORE=   8 cores,   64 groups


--------------------------------------------------------------------------------------------------------


 INCAR:
   SYSTEM = MgO-rocksalt
   ISMEAR = 0
   SIGMA = 0.05
   EDIFF = 1E-7
   ALGO = ALL
   ISTART = 0
   IBRION = 5
   POTIM = 0.035
   NFREE = 2
   ISYM = 0
   DIPOL = 0.5 0.5 0.5
   IDIPOL = 3
   LDIPOL = .TRUE.
   LHFCALC = .TRUE.
   GGA = B5
   AEXX = 0.2
   AGGAX = 0.72
   AGGAC = 0.81
   ALDAC = 0.19
   IVDW = 1
   VDW_S6 = 1.05
   VDW_C6 = 1.75 0.70 0.63 0.70
   VDW_R0 = 1.452 1.342 1.243 1.342
   ENCUT = 600
   PREC = Accurate
   LASPH = .TRUE.
   LREAL = .FALSE.
   ISPIN = 1
   NELM = 200
   NELMIN = 8
   NCORE = 8
   KPAR = 1
   LWAVE = .FALSE.
   LCHARG = .FALSE.

 POTCAR:    PAW_PBE C 08Apr2002                   
 POTCAR:    PAW_PBE O 08Apr2002                   
 POTCAR:    PAW_PBE Mg_pv 13Apr2007               
 POTCAR:    PAW_PBE O 08Apr2002                   
 POTCAR:    PAW_PBE C 08Apr2002                   
   SHA256 =  253f7b50bb8d59471dbedb8285d89021f4a42ed1a2c5d38a03a736e69125dd95 C/POTCAR              
   COPYR  = (c) Copyright 08Apr2002 Georg Kresse                                                    
   COPYR  = This file is part of the software VASP. Any use, copying, and all other rights are regul
   COPYR  = If you do not have a valid VASP license, you may not use, copy or distribute this file. 
   VRHFIN =C: s2p2                                                                                  
   LEXCH  = PE                                                                                      
   EATOM  =   147.1560 eV,   10.8157 Ry                                                             
                                                                                                    
   TITEL  = PAW_PBE C 08Apr2002                                                                     
   LULTRA =        F    use ultrasoft PP ?                                                          
   IUNSCR =        1    unscreen: 0-lin 1-nonlin 2-no                                               
   RPACOR =    1.200    partial core radius                                                         
   POMASS =   12.011; ZVAL   =    4.000    mass and valenz                                          
   RCORE  =    1.500    outmost cutoff radius                                                       
   RWIGS  =    1.630; RWIGS  =    0.863    wigner-seitz radius (au A)                               
   ENMAX  =  400.000; ENMIN  =  300.000 eV                                                          
   ICORE  =        2    local potential                                                             
   LCOR   =        T    correct aug charges                                                         
   LPAW   =        T    paw PP                                                                      
   EAUG   =  644.873                                                                                
   DEXC   =    0.000                                                                                
   RMAX   =    1.529    core radius for proj-oper                                                   
   RAUG   =    1.300    factor for augmentation sphere                                              
   RDEP   =    1.501    radius for radial grids                                                     
   RDEPT  =    1.300    core radius for aug-charge                                                  
                                                                                                    
   Atomic configuration                                                                             
    4 entries                                                                                       
     n  l   j            E        occ.                                                              
     1  0  0.50      -273.3789   2.0000                                                             
     2  0  0.50       -13.7508   2.0000                                                             
     2  1  0.50        -5.2854   2.0000                                                             
     3  2  1.50        -5.4423   0.0000                                                             
   Description                                                                                      
     l       E           TYP  RCUT    TYP  RCUT                                                     
     0    -13.7508458     23  1.200                                                                 
     0     -8.2022199     23  1.200                                                                 
     1     -5.2854383     23  1.500                                                                 
     1     34.0145650     23  1.500                                                                 
     2     -5.4423304      7  1.500                                                                 
  local pseudopotential read in
  partial core-charges read in
  partial kinetic energy density read in
  atomic valenz-charges read in
  non local Contribution for L=           0  read in
    real space projection operators read in
  non local Contribution for L=           0  read in
    real space projection operators read in
  non local Contribution for L=           1  read in
    real space projection operators read in
  non local Contribution for L=           1  read in
    real space projection operators read in
    PAW grid and wavefunctions read in

   number of l-projection  operators is LMAX  =           4
   number of lm-projection operators is LMMAX =           8

 POTCAR:    PAW_PBE O 08Apr2002                   
   SHA256 =  818f92134a0a090dccd8ba1447fa70422a3b330e708bb4f08108d8ae51209ddf O/POTCAR              
   COPYR  = (c) Copyright 08Apr2002 Georg Kresse                                                    
   COPYR  = This file is part of the software VASP. Any use, copying, and all other rights are regul
   COPYR  = If you do not have a valid VASP license, you may not use, copy or distribute this file. 
   VRHFIN =O: s2p4                                                                                  
   LEXCH  = PE                                                                                      
   EATOM  =   432.3788 eV,   31.7789 Ry                                                             
                                                                                                    
   TITEL  = PAW_PBE O 08Apr2002                                                                     
   LULTRA =        F    use ultrasoft PP ?                                                          
   IUNSCR =        1    unscreen: 0-lin 1-nonlin 2-no                                               
   RPACOR =    1.200    partial core radius                                                         
   POMASS =   16.000; ZVAL   =    6.000    mass and valenz                                          
   RCORE  =    1.520    outmost cutoff radius                                                       
   RWIGS  =    1.550; RWIGS  =    0.820    wigner-seitz radius (au A)                               
   ENMAX  =  400.000; ENMIN  =  300.000 eV                                                          
   ICORE  =        2    local potential                                                             
   LCOR   =        T    correct aug charges                                                         
   LPAW   =        T    paw PP                                                                      
   EAUG   =  605.392                                                                                
   DEXC   =    0.000                                                                                
   RMAX   =    1.553    core radius for proj-oper                                                   
   RAUG   =    1.300    factor for augmentation sphere                                              
   RDEP   =    1.550    radius for radial grids                                                     
   RDEPT  =    1.329    core radius for aug-charge                                                  
                                                                                                    
   Atomic configuration                                                                             
    4 entries                                                                                       
     n  l   j            E        occ.                                                              
     1  0  0.50      -514.6923   2.0000                                                             
     2  0  0.50       -23.9615   2.0000                                                             
     2  1  0.50        -9.0305   4.0000                                                             
     3  2  1.50        -9.5241   0.0000                                                             
   Description                                                                                      
     l       E           TYP  RCUT    TYP  RCUT                                                     
     0    -23.9615318     23  1.200                                                                 
     0     -9.5240782     23  1.200                                                                 
     1     -9.0304911     23  1.520                                                                 
     1      8.1634956     23  1.520                                                                 
     2     -9.5240782      7  1.500                                                                 
  local pseudopotential read in
  partial core-charges read in
  partial kinetic energy density read in
  kinetic energy density of atom read in
  atomic valenz-charges read in
  non local Contribution for L=           0  read in
    real space projection operators read in
  non local Contribution for L=           0  read in
    real space projection operators read in
  non local Contribution for L=           1  read in
    real space projection operators read in
  non local Contribution for L=           1  read in
    real space projection operators read in
    PAW grid and wavefunctions read in

   number of l-projection  operators is LMAX  =           4
   number of lm-projection operators is LMMAX =           8

 POTCAR:    PAW_PBE Mg_pv 13Apr2007               
   SHA256 =  f474ac0dd33840b9ae76c01d57fea79fdf77cdfbb07d5ade72c65f83c709b62b Mg_pv/POTCAR          
   COPYR  = (c) Copyright 13Apr2007 Georg Kresse                                                    
   COPYR  = This file is part of the software VASP. Any use, copying, and all other rights are regul
   COPYR  = If you do not have a valid VASP license, you may not use, copy or distribute this file. 
   VRHFIN =Mg: p6s2                                                                                 
   LEXCH  = PE                                                                                      
   EATOM  =  1056.7344 eV,   77.6678 Ry                                                             
                                                                                                    
   TITEL  = PAW_PBE Mg_pv 13Apr2007                                                                 
   LULTRA =        F    use ultrasoft PP ?                                                          
   IUNSCR =        1    unscreen: 0-lin 1-nonlin 2-no                                               
   RPACOR =    1.500    partial core radius                                                         
   POMASS =   24.305; ZVAL   =    8.000    mass and valenz                                          
   RCORE  =    2.000    outmost cutoff radius                                                       
   RWIGS  =    2.000; RWIGS  =    1.058    wigner-seitz radius (au A)                               
   ENMAX  =  403.929; ENMIN  =  302.947 eV                                                          
   RCLOC  =    1.506    cutoff for local pot                                                        
   LCOR   =        T    correct aug charges                                                         
   LPAW   =        T    paw PP                                                                      
   EAUG   =  758.780                                                                                
   DEXC   =    0.000                                                                                
   RMAX   =    2.045    core radius for proj-oper                                                   
   RAUG   =    1.300    factor for augmentation sphere                                              
   RDEP   =    2.025    radius for radial grids                                                     
   RDEPT  =    1.557    core radius for aug-charge                                                  
                                                                                                    
   Atomic configuration                                                                             
    5 entries                                                                                       
     n  l   j            E        occ.                                                              
     1  0  0.50     -1259.6230   2.0000                                                             
     2  0  0.50       -79.8442   2.0000                                                             
     2  1  1.50       -46.6121   6.0000                                                             
     3  0  0.50        -4.7055   2.0000                                                             
     3  2  1.50        -1.3606   0.0000                                                             
   Description                                                                                      
     l       E           TYP  RCUT    TYP  RCUT                                                     
     1    -46.6121073     23  1.600                                                                 
     1      2.7211652     23  1.600                                                                 
     0     -4.7054661     23  2.000                                                                 
     0     61.2262170     23  2.000                                                                 
     2     -1.3605826     23  2.000                                                                 
  local pseudopotential read in
  partial core-charges read in
  partial kinetic energy density read in
  atomic valenz-charges read in
  non local Contribution for L=           1  read in
    real space projection operators read in
  non local Contribution for L=           1  read in
    real space projection operators read in
  non local Contribution for L=           0  read in
    real space projection operators read in
  non local Contribution for L=           0  read in
    real space projection operators read in
  non local Contribution for L=           2  read in
    real space projection operators read in
    PAW grid and wavefunctions read in

   number of l-projection  operators is LMAX  =           5
   number of lm-projection operators is LMMAX =          13

 POTCAR:    PAW_PBE O 08Apr2002                   
   SHA256 =  818f92134a0a090dccd8ba1447fa70422a3b330e708bb4f08108d8ae51209ddf O/POTCAR              
   COPYR  = (c) Copyright 08Apr2002 Georg Kresse                                                    
   COPYR  = This file is part of the software VASP. Any use, copying, and all other rights are regul
   COPYR  = If you do not have a valid VASP license, you may not use, copy or distribute this file. 
   VRHFIN =O: s2p4                                                                                  
   LEXCH  = PE                                                                                      
   EATOM  =   432.3788 eV,   31.7789 Ry                                                             
                                                                                                    
   TITEL  = PAW_PBE O 08Apr2002                                                                     
   LULTRA =        F    use ultrasoft PP ?                                                          
   IUNSCR =        1    unscreen: 0-lin 1-nonlin 2-no                                               
   RPACOR =    1.200    partial core radius                                                         
   POMASS =   16.000; ZVAL   =    6.000    mass and valenz                                          
   RCORE  =    1.520    outmost cutoff radius                                                       
   RWIGS  =    1.550; RWIGS  =    0.820    wigner-seitz radius (au A)                               
   ENMAX  =  400.000; ENMIN  =  300.000 eV                                                          
   ICORE  =        2    local potential                                                             
   LCOR   =        T    correct aug charges                                                         
   LPAW   =        T    paw PP                                                                      
   EAUG   =  605.392                                                                                
   DEXC   =    0.000                                                                                
   RMAX   =    1.553    core radius for proj-oper                                                   
   RAUG   =    1.300    factor for augmentation sphere                                              
   RDEP   =    1.550    radius for radial grids                                                     
   RDEPT  =    1.329    core radius for aug-charge                                                  
                                                                                                    
   Atomic configuration                                                                             
    4 entries                                                                                       
     n  l   j            E        occ.                                                              
     1  0  0.50      -514.6923   2.0000                                                             
     2  0  0.50       -23.9615   2.0000                                                             
     2  1  0.50        -9.0305   4.0000                                                             
     3  2  1.50        -9.5241   0.0000                                                             
   Description                                                                                      
     l       E           TYP  RCUT    TYP  RCUT                                                     
     0    -23.9615318     23  1.200                                                                 
     0     -9.5240782     23  1.200                                                                 
     1     -9.0304911     23  1.520                                                                 
     1      8.1634956     23  1.520                                                                 
     2     -9.5240782      7  1.500                                                                 
  local pseudopotential read in
  partial core-charges read in
  partial kinetic energy density read in
  kinetic energy density of atom read in
  atomic valenz-charges read in
  non local Contribution for L=           0  read in
    real space projection operators read in
  non local Contribution for L=           0  read in
    real space projection operators read in
  non local Contribution for L=           1  read in
    real space projection operators read in
  non local Contribution for L=           1  read in
    real space projection operators read in
    PAW grid and wavefunctions read in

   number of l-projection  operators is LMAX  =           4
   number of lm-projection operators is LMMAX =           8

 -----------------------------------------------------------------------------
|                                                                             |
|               ----> ADVICE to this user running VASP <----                  |
|                                                                             |
|     You have a (more or less) 'large supercell' and for larger cells it     |
|     might be more efficient to use real-space projection operators.         |
|     Therefore, try LREAL= Auto in the INCAR file.                           |
|     Mind: For very accurate calculation, you might also keep the            |
|     reciprocal projection scheme (i.e. LREAL=.FALSE.).                      |
|                                                                             |
 -----------------------------------------------------------------------------

 -----------------------------------------------------------------------------
|                                                                             |
|               ----> ADVICE to this user running VASP <----                  |
|                                                                             |
|     You enforced a specific xc type in the INCAR file but a different       |
|     type was found in the POTCAR file.                                      |
|     I HOPE YOU KNOW WHAT YOU ARE DOING!                                     |
|                                                                             |
 -----------------------------------------------------------------------------

  PAW_PBE C 08Apr2002                   :
 energy of atom  1       EATOM= -147.1560
 kinetic energy error for atom=    0.0057 (will be added to EATOM!!)
  PAW_PBE O 08Apr2002                   :
 energy of atom  2       EATOM= -432.3788
 kinetic energy error for atom=    0.0168 (will be added to EATOM!!)
  PAW_PBE Mg_pv 13Apr2007               :
 energy of atom  3       EATOM=-1056.7344
 kinetic energy error for atom=    0.0221 (will be added to EATOM!!)
  PAW_PBE O 08Apr2002                   :
 energy of atom  4       EATOM= -432.3788
 kinetic energy error for atom=    0.0168 (will be added to EATOM!!)


 POSCAR:  C  O Mg  O
  positions in direct lattice
  No initial velocities read in
 exchange correlation table for  LEXCH =       12
   RHO(1)=    0.500       N(1)  =     2000
   RHO(2)=  100.500       N(2)  =     4000



--------------------------------------------------------------------------------------------------------


 ion  position               nearest neighbor table
   1  0.500  0.500  0.768-   2 1.13
   2  0.500  0.500  0.821-   1 1.13
   3  0.250  0.000  0.352-  37 2.10  38 2.10  45 2.10  54 2.10  35 2.10
   4  0.500  0.250  0.352-  37 2.10  38 2.10  46 2.10  53 2.10  36 2.10
   5  0.250  0.250  0.451-  35 2.10  36 2.10  43 2.10  52 2.10  37 2.10  41 2.11
   6  0.500  0.000  0.451-  35 2.10  36 2.10  44 2.10  51 2.10  38 2.10  42 2.11
   7  0.250  0.000  0.550-  42 2.10  41 2.10  49 2.10  58 2.10  35 2.11  39 2.13
   8  0.500  0.251  0.550-  50 2.10  41 2.10  57 2.10  42 2.11  36 2.12  40 2.13
   9  0.250  0.250  0.647-  41 2.09  39 2.10  56 2.10  47 2.10  40 2.10
  10  0.500  0.000  0.648-  42 2.09  40 2.09  48 2.09  39 2.10  55 2.10
  11  0.250  0.500  0.352-  37 2.10  45 2.10  46 2.10  62 2.10  43 2.10
  12  0.500  0.750  0.352-  38 2.10  45 2.10  46 2.10  61 2.10  44 2.10
  13  0.250  0.750  0.451-  35 2.10  43 2.10  44 2.10  60 2.10  45 2.10  49 2.11
  14  0.500  0.500  0.451-  36 2.10  43 2.10  44 2.10  59 2.10  46 2.10  50 2.12
  15  0.251  0.500  0.550-  50 2.10  49 2.10  41 2.10  66 2.11  43 2.12  47 2.13
  16  0.500  0.749  0.550-  50 2.10  49 2.10  65 2.10  42 2.11  44 2.12  48 2.13
  17  0.250  0.750  0.647-  49 2.09  39 2.10  64 2.10  47 2.10  48 2.10
  18  0.500  0.500  0.650-  40 2.11  47 2.11  48 2.11  63 2.11  50 2.13
  19  0.750  0.000  0.352-  38 2.10  53 2.10  54 2.10  61 2.10  51 2.10
  20  0.000  0.250  0.352-  37 2.10  53 2.10  54 2.10  62 2.10  52 2.10
  21  0.750  0.250  0.451-  36 2.10  51 2.10  52 2.10  59 2.10  53 2.10  57 2.11
  22  0.000  0.000  0.451-  35 2.10  51 2.10  52 2.10  60 2.10  54 2.10  58 2.11
  23  0.750  0.000  0.550-  42 2.10  57 2.10  65 2.10  58 2.10  51 2.11  55 2.13
  24  0.000  0.250  0.550-  66 2.10  57 2.10  41 2.10  58 2.10  52 2.11  56 2.13
  25  0.750  0.250  0.647-  57 2.09  56 2.10  55 2.10  40 2.10  63 2.10
  26  0.000  0.000  0.648-  58 2.09  55 2.10  56 2.10  39 2.10  64 2.10
  27  0.750  0.500  0.352-  46 2.10  53 2.10  61 2.10  62 2.10  59 2.10
  28  0.000  0.750  0.352-  45 2.10  54 2.10  61 2.10  62 2.10  60 2.10
  29  0.750  0.750  0.451-  44 2.10  51 2.10  59 2.10  60 2.10  61 2.10  65 2.11
  30  0.000  0.500  0.451-  43 2.10  52 2.10  59 2.10  60 2.10  62 2.10  66 2.11
  31  0.749  0.500  0.550-  50 2.10  57 2.10  65 2.10  66 2.11  59 2.12  63 2.13
  32  0.000  0.750  0.550-  66 2.10  65 2.10  49 2.10  58 2.10  60 2.11  64 2.13
  33  0.750  0.750  0.647-  65 2.09  64 2.10  55 2.10  48 2.10  63 2.10
  34  0.000  0.500  0.648-  66 2.09  63 2.09  47 2.09  64 2.10  56 2.10
  35  0.250  0.000  0.451-   5 2.10   6 2.10  13 2.10  22 2.10   3 2.10   7 2.11
  36  0.500  0.250  0.451-   5 2.10   6 2.10  14 2.10  21 2.10   4 2.10   8 2.12
  37  0.250  0.250  0.352-   3 2.10   4 2.10  11 2.10  20 2.10   5 2.10
  38  0.500  0.000  0.352-   3 2.10   4 2.10  12 2.10  19 2.10   6 2.10
  39  0.250  0.000  0.650-  26 2.10  17 2.10   9 2.10  10 2.10   7 2.13
  40  0.500  0.249  0.650-  10 2.09   9 2.10  25 2.10  18 2.11   8 2.13
  41  0.250  0.250  0.550-   9 2.09   7 2.10  24 2.10  15 2.10   8 2.10   5 2.11
  42  0.500  0.000  0.549-  10 2.09   7 2.10  23 2.10   6 2.11  16 2.11   8 2.11
  43  0.250  0.500  0.451-   5 2.10  13 2.10  14 2.10  30 2.10  11 2.10  15 2.12
  44  0.500  0.750  0.451-   6 2.10  13 2.10  14 2.10  29 2.10  12 2.10  16 2.12
  45  0.250  0.750  0.352-   3 2.10  11 2.10  12 2.10  28 2.10  13 2.10
  46  0.500  0.500  0.352-   4 2.10  11 2.10  12 2.10  27 2.10  14 2.10
  47  0.249  0.500  0.650-  34 2.09  17 2.10   9 2.10  18 2.11  15 2.13
  48  0.500  0.751  0.650-  10 2.09  17 2.10  33 2.10  18 2.11  16 2.13
  49  0.250  0.750  0.550-  17 2.09   7 2.10  32 2.10  15 2.10  16 2.10  13 2.11
  50  0.500  0.500  0.550-   8 2.10  15 2.10  16 2.10  31 2.10  14 2.12  18 2.13
  51  0.750  0.000  0.451-   6 2.10  21 2.10  22 2.10  29 2.10  19 2.10  23 2.11
  52  0.000  0.250  0.451-   5 2.10  21 2.10  22 2.10  30 2.10  20 2.10  24 2.11
  53  0.750  0.250  0.352-   4 2.10  19 2.10  20 2.10  27 2.10  21 2.10
  54  0.000  0.000  0.352-   3 2.10  19 2.10  20 2.10  28 2.10  22 2.10
  55  0.750  0.000  0.650-  26 2.10  25 2.10  33 2.10  10 2.10  23 2.13
  56  0.000  0.250  0.650-  26 2.10  25 2.10   9 2.10  34 2.10  24 2.13
  57  0.750  0.250  0.550-  25 2.09  24 2.10  23 2.10   8 2.10  31 2.10  21 2.11
  58  0.000  0.000  0.550-  26 2.09  23 2.10  24 2.10   7 2.10  32 2.10  22 2.11
  59  0.750  0.500  0.451-  14 2.10  21 2.10  29 2.10  30 2.10  27 2.10  31 2.12
  60  0.000  0.750  0.451-  13 2.10  22 2.10  29 2.10  30 2.10  28 2.10  32 2.11
  61  0.750  0.750  0.352-  12 2.10  19 2.10  27 2.10  28 2.10  29 2.10
  62  0.000  0.500  0.352-  11 2.10  20 2.10  27 2.10  28 2.10  30 2.10
  63  0.751  0.500  0.650-  34 2.09  33 2.10  25 2.10  18 2.11  31 2.13
  64  0.000  0.750  0.650-  26 2.10  17 2.10  33 2.10  34 2.10  32 2.13
  65  0.750  0.750  0.550-  33 2.09  32 2.10  23 2.10  16 2.10  31 2.10  29 2.11
  66  0.000  0.500  0.549-  34 2.09  32 2.10  24 2.10  30 2.11  15 2.11  31 2.11


IMPORTANT INFORMATION: All symmetrisations will be switched off!
NOSYMM: (Re-)initialisation of all symmetry stuff for point group C_1.


----------------------------------------------------------------------------------------

                                     Primitive cell                                     

  volume of cell :    1504.9259

  direct lattice vectors                    reciprocal lattice vectors
     8.404861995  0.000000000  0.000000000     0.118978753  0.000000000  0.000000000
     0.000000000  8.404861995  0.000000000     0.000000000  0.118978753  0.000000000
     0.000000000  0.000000000 21.303646496     0.000000000  0.000000000  0.046940321

  length of vectors
     8.404861995  8.404861995 21.303646496     0.118978753  0.118978753  0.046940321

  position of ions in fractional coordinates (direct lattice)
     0.500000000  0.500000000  0.767731706
     0.500000000  0.500000000  0.820774347
     0.250000000  0.000000000  0.352052406
     0.500000000  0.250000000  0.352052406
     0.250000000  0.250000000  0.450684135
     0.500000000  0.000000000  0.450684135
     0.250107473  0.000000000  0.549739955
     0.500000000  0.250518132  0.550013704
     0.249743486  0.249743486  0.647447924
     0.500000000  0.000000000  0.647579443
     0.250000000  0.500000000  0.352052406
     0.500000000  0.750000000  0.352052406
     0.250000000  0.750000000  0.450684135
     0.500000000  0.500000000  0.450684135
     0.250518132  0.500000000  0.550013704
     0.500000000  0.749481868  0.550013704
     0.249743486  0.750256514  0.647447924
     0.500000000  0.500000000  0.650192045
     0.750000000  0.000000000  0.352052406
     0.000000000  0.250000000  0.352052406
     0.750000000  0.250000000  0.450684135
     0.000000000  0.000000000  0.450684135
     0.749892527  0.000000000  0.549739955
     0.000000000  0.250107473  0.549739955
     0.750256514  0.249743486  0.647447924
     0.000000000  0.000000000  0.647677188
     0.750000000  0.500000000  0.352052406
     0.000000000  0.750000000  0.352052406
     0.750000000  0.750000000  0.450684135
     0.000000000  0.500000000  0.450684135
     0.749481868  0.500000000  0.550013704
     0.000000000  0.749892527  0.549739955
     0.750256514  0.750256514  0.647447924
     0.000000000  0.500000000  0.647579443
     0.250000000  0.000000000  0.450684135
     0.500000000  0.250000000  0.450684135
     0.250000000  0.250000000  0.352052406
     0.500000000  0.000000000  0.352052406
     0.249742882  0.000000000  0.649806243
     0.500000000  0.248885363  0.649916189
     0.249962043  0.249962043  0.549551754
     0.500000000  0.000000000  0.549498077
     0.250000000  0.500000000  0.450684135
     0.500000000  0.750000000  0.450684135
     0.250000000  0.750000000  0.352052406
     0.500000000  0.500000000  0.352052406
     0.248885363  0.500000000  0.649916189
     0.500000000  0.751114637  0.649916189
     0.249962043  0.750037957  0.549551754
     0.500000000  0.500000000  0.550007089
     0.750000000  0.000000000  0.450684135
     0.000000000  0.250000000  0.450684135
     0.750000000  0.250000000  0.352052406
     0.000000000  0.000000000  0.352052406
     0.750257118  0.000000000  0.649806243
     0.000000000  0.249742882  0.649806243
     0.750037957  0.249962043  0.549551754
     0.000000000  0.000000000  0.549517757
     0.750000000  0.500000000  0.450684135
     0.000000000  0.750000000  0.450684135
     0.750000000  0.750000000  0.352052406
     0.000000000  0.500000000  0.352052406
     0.751114637  0.500000000  0.649916189
     0.000000000  0.750257118  0.649806243
     0.750037957  0.750037957  0.549551754
     0.000000000  0.500000000  0.549498077

  ion indices of the primitive-cell ions
   primitive index   ion index
                 1           1
                 2           2
                 3           3
                 4           4
                 5           5
                 6           6
                 7           7
                 8           8
                 9           9
                10          10
                11          11
                12          12
                13          13
                14          14
                15          15
                16          16
                17          17
                18          18
                19          19
                20          20
                21          21
                22          22
                23          23
                24          24
                25          25
                26          26
                27          27
                28          28
                29          29
                30          30
                31          31
                32          32
                33          33
                34          34
                35          35
                36          36
                37          37
                38          38
                39          39
                40          40
                41          41
                42          42
                43          43
                44          44
                45          45
                46          46
                47          47
                48          48
                49          49
                50          50
                51          51
                52          52
                53          53
                54          54
                55          55
                56          56
                57          57
                58          58
                59          59
                60          60
                61          61
                62          62
                63          63
                64          64
                65          65
                66          66

----------------------------------------------------------------------------------------



 KPOINTS: pymatgen v2020.8.13 with grid density = 

Automatic generation of k-mesh.
 Grid dimensions read from file:
 generate k-points for:    2    2    1

 Generating k-lattice:

  Cartesian coordinates                     Fractional coordinates (reciprocal lattice)
     0.059489377  0.000000000  0.000000000     0.500000000  0.000000000  0.000000000
     0.000000000  0.059489377  0.000000000     0.000000000  0.500000000  0.000000000
     0.000000000  0.000000000  0.046940321     0.000000000  0.000000000  1.000000000

  Length of vectors
     0.059489377  0.059489377  0.046940321

  Shift w.r.t. Gamma in fractional coordinates (k-lattice)
     0.000000000  0.000000000  0.000000000

 
 Subroutine IBZKPT returns following result:
 ===========================================
 
 Found      4 irreducible k-points:
 
 Following reciprocal coordinates:
            Coordinates               Weight
  0.000000  0.000000  0.000000      1.000000
  0.500000  0.000000  0.000000      1.000000
  0.000000  0.500000  0.000000      1.000000
  0.500000  0.500000  0.000000      1.000000
 
 Following cartesian coordinates:
            Coordinates               Weight
  0.000000  0.000000  0.000000      1.000000
  0.059489  0.000000  0.000000      1.000000
  0.000000  0.059489  0.000000      1.000000
  0.059489  0.059489  0.000000      1.000000
 
 
 Subroutine IBZKPT_HF returns following result:
 ==============================================
 
 Found      4 k-points in 1st BZ
 the following      4 k-points will be used (e.g. in the exchange kernel)
 Following reciprocal coordinates:   # in IRBZ
  0.000000  0.000000  0.000000    0.25000000   1 t-inv F
  0.500000  0.000000  0.000000    0.25000000   2 t-inv F
  0.000000  0.500000  0.000000    0.25000000   3 t-inv F
  0.500000  0.500000  0.000000    0.25000000   4 t-inv F


--------------------------------------------------------------------------------------------------------




 Dimension of arrays:
   k-points           NKPTS =      4   k-points in BZ     NKDIM =      4   number of bands    NBANDS=    320
   number of dos      NEDOS =    301   number of ions     NIONS =     66
   non local maximal  LDIM  =      5   non local SUM 2l+1 LMDIM =     13
   total plane-waves  NPLWV = 882000
   max r-space proj   IRMAX =      1   max aug-charges    IRDMAX=  11749
   dimension x,y,z NGX =    70 NGY =   70 NGZ =  180
   dimension x,y,z NGXF=   140 NGYF=  140 NGZF=  360
   support grid    NGXF=   140 NGYF=  140 NGZF=  360
   ions per type =               1   1  32  32
   NGX,Y,Z   is equivalent  to a cutoff of  13.85, 13.85, 14.05 a.u.
   NGXF,Y,Z  is equivalent  to a cutoff of  27.69, 27.69, 28.09 a.u.

 SYSTEM =  MgO-rocksalt                            
 POSCAR =   C  O Mg  O                             

 Startparameter for this run:
   NWRITE =      2    write-flag & timer
   PREC   = accura    normal or accurate (medium, high low for compatibility)
   ISTART =      0    job   : 0-new  1-cont  2-samecut
   ICHARG =      2    charge: 1-file 2-atom 10-const
   ISPIN  =      1    spin polarized calculation?
   LNONCOLLINEAR =      F non collinear calculations
   LSORBIT =      F    spin-orbit coupling
   INIWAV =      1    electr: 0-lowe 1-rand  2-diag
   LASPH  =      T    aspherical Exc in radial PAW
 Electronic Relaxation 1
   ENCUT  =  600.0 eV  44.10 Ry    6.64 a.u.  16.79 16.79 42.55*2*pi/ulx,y,z
   ENINI  =  600.0     initial cutoff
   ENAUG  =  758.8 eV  augmentation charge cutoff
   NELM   =    200;   NELMIN=  8; NELMDL= -5     # of ELM steps 
   EDIFF  = 0.1E-06   stopping-criterion for ELM
   LREAL  =      F    real-space projection
   NLSPLINE    = F    spline interpolate recip. space projectors
   LCOMPAT=      F    compatible to vasp.4.4
   GGA_COMPAT  = T    GGA compatible to vasp.4.4-vasp.4.6
   LMAXPAW     = -100 max onsite density
   LMAXMIX     =    2 max onsite mixed and CHGCAR
   VOSKOWN=      0    Vosko Wilk Nusair interpolation
   ROPT   =    0.00000   0.00000   0.00000   0.00000
 Ionic relaxation
   EDIFFG = 0.1E-05   stopping-criterion for IOM
   NSW    =    829    number of steps for IOM
   NBLOCK =      1;   KBLOCK =    829    inner block; outer block 
   IBRION =      5    ionic relax: 0-MD 1-quasi-New 2-CG
   NFREE  =      2    steps in history (QN), initial steepest desc. (CG)
   ISIF   =      0    stress and relaxation
   IWAVPR =     11    prediction:  0-non 1-charg 2-wave 3-comb
   ISYM   =      0    0-nonsym 1-usesym 2-fastsym
   LCORR  =      T    Harris-Foulkes like correction to forces

   POTIM  = 0.0350    time-step for ionic-motion
   TEIN   =    0.0    initial temperature
   TEBEG  =    0.0;   TEEND  =   0.0 temperature during run
   SMASS  =  -3.00    Nose mass-parameter (am)
   estimated Nose-frequenzy (Omega)   =  0.10E-29 period in steps = 0.18E+48 mass=  -0.161E-26a.u.
   SCALEE = 1.0000    scale energy and forces
   NPACO  =    256;   APACO  = 10.0  distance and # of slots for P.C.
   PSTRESS=    0.0 pullay stress

  Mass of Ions in am
   POMASS =  12.01 16.00 24.30 16.00
  Ionic Valenz
   ZVAL   =   4.00  6.00  8.00  6.00
  Atomic Wigner-Seitz radii
   RWIGS  =  -1.00 -1.00 -1.00 -1.00
  virtual crystal weights 
   VCA    =   1.00  1.00  1.00  1.00
   NELECT =     458.0000    total number of electrons
   NUPDOWN=      -1.0000    fix difference up-down

 DOS related values:
   EMIN   =  10.00;   EMAX   =-10.00  energy-range for DOS
   EFERMI =   0.00
   ISMEAR =     0;   SIGMA  =   0.05  broadening in eV -4-tet -1-fermi 0-gaus

 Electronic relaxation 2 (details)
   IALGO  =     58    algorithm
   LDIAG  =      T    sub-space diagonalisation (order eigenvalues)
   LSUBROT=      F    optimize rotation matrix (better conditioning)
   TURBO    =      0    0=normal 1=particle mesh
   IRESTART =      0    0=no restart 2=restart with 2 vectors
   NREBOOT  =      0    no. of reboots
   NMIN     =      0    reboot dimension
   EREF     =   0.00    reference energy to select bands
   IMIX   =      4    mixing-type and parameters
     AMIX     =   0.40;   BMIX     =  1.00
     AMIX_MAG =   1.60;   BMIX_MAG =  1.00
     AMIN     =   0.10
     WC   =   100.;   INIMIX=   1;  MIXPRE=   1;  MAXMIX= -45

 Intra band minimization:
   WEIMIN = 0.0010     energy-eigenvalue tresh-hold
   EBREAK =  0.78E-10  absolut break condition
   DEPER  =   0.30     relativ break condition  

   TIME   =   0.40     timestep for ELM

  volume/ion in A,a.u.               =      22.80       153.87
  Fermi-wavevector in a.u.,A,eV,Ry     =   1.101180  2.080928 16.498387  1.212597
  Thomas-Fermi vector in A             =   2.237603

 Write flags
   LWAVE        =      F    write WAVECAR
   LDOWNSAMPLE  =      F    k-point downsampling of WAVECAR
   LCHARG       =      F    write CHGCAR
   LVTOT        =      F    write LOCPOT, total local potential
   LVHAR        =      F    write LOCPOT, Hartree potential only
   LELF         =      F    write electronic localiz. function (ELF)
   LORBIT       =      0    0 simple, 1 ext, 2 COOP (PROOUT), +10 PAW based schemes


 Dipole corrections
   LMONO  =      F    monopole corrections only (constant potential shift)
   LDIPOL =      T    correct potential (dipole corrections)
   IDIPOL =      3    1-x, 2-y, 3-z, 4-all directions 
   EPSILON=  1.0000000 bulk dielectric constant

 Exchange correlation treatment:
   GGA     =    B5    GGA type
   LEXCH   =    12    internal setting for exchange type
   LIBXC   =     F    Libxc                    
   VOSKOWN =     0    Vosko Wilk Nusair interpolation
   EXXOEP  =     0    0=HF, 1=EXX-LHF (local Hartree Fock) 2=EXX OEP
   LHFCALC =     T    Hartree Fock is set to
   LSYMGRAD=     F    symmetrize gradient (conserves proper symmetry)
   PRECFOCK=normal    Normal, Fast or Accurate (Low or Medium for compatibility)
   LRHFCALC=     F    long range Hartree Fock
   LRSCOR  =     F    long range correlation only (use DFT for short range part)
   LTHOMAS =     F    Thomas Fermi screening in HF
   LMODELHF=     F    short range full HF, long range fraction AEXX
   LFOCKACE=     T    use Adeptively-Compressed-Exchange operator
   ENCUT4O =  -1.0   cutoff for four orbital integrals eV
   LMAXFOCK=     4    L truncation for augmentation on plane wave grid
   LMAXFOCKAE=  -1    L truncation for all-electron charge restoration on plane wave grid
   NMAXFOCKAE=   1    number of basis functions for all-electron charge restoration
   LFOCKAEDFT=     F  apply the AE augmentation even for DFT
   NKREDX  =     1    reduce k-point grid by
   NKREDY  =     1    reduce k-point grid by
   NKREDZ  =     1    reduce k-point grid by
   SHIFTRED=     F    shift reduced grid of Gamma
   HFKIDENT=     F    idential grid for each k-point
   ODDONLY =     F    use only odd q-grid points
   EVENONLY=     F    use only even q-grid points
   HFALPHA =   -1.0000 decay constant for conv. correction
   MCALPHA =    0.0000 extent of test-charge in conv. correction in multipole expansion
   AEXX    =    0.2000 exact exchange contribution
   HFSCREEN=    0.0000 screening length (either q_TF or 0.3 A-1)
   HFSCREENC=   0.0000 screening length for correlation (either q_TF or 0.3 A-1)
   HFRCUT  =    0.0000 spherical cutoff for potential kernel
   ALDAX   =    0.8000 LDA exchange part
   AGGAX   =    0.7200 GGA exchange part
   ALDAC   =    0.1900 LDA correlation
   AGGAC   =    0.8100 GGA correlation
   ENCUTFOCK=  -1.0 apply spherical cutoff to Coloumb kernel
   NBANDSGWLOW=     1    first orbital included in HF term
   NBLOCK_FOCK=    64    blocking factor in FOCK_ACC

 Linear response parameters
   LEPSILON=     F    determine dielectric tensor
   LRPA    =     F    only Hartree local field effects (RPA)
   LNABLA  =     F    use nabla operator in PAW spheres
   LVEL    =     F    velocity operator in full k-point grid
   CSHIFT  =0.1000    complex shift for real part using Kramers Kronig
   OMEGAMAX=  -1.0    maximum frequency
   DEG_THRESHOLD= 0.2000000E-02 threshold for treating states as degnerate
   RTIME   =   -0.100 relaxation time in fs
  (WPLASMAI=    0.000 imaginary part of plasma frequency in eV, 0.658/RTIME)
   DFIELD  = 0.0000000 0.0000000 0.0000000 field for delta impulse in time

  Optional k-point grid parameters
   LKPOINTS_OPT  =     F    use optional k-point grid
   KPOINTS_OPT_MODE=     1    mode for optional k-point grid

 Orbital magnetization related:
   ORBITALMAG=     F  switch on orbital magnetization
   LCHIMAG   =     F  perturbation theory with respect to B field
   DQ        =  0.001000  dq finite difference perturbation B field
   LLRAUG    =     F  two centre corrections for induced B field



--------------------------------------------------------------------------------------------------------


 finite differences
   using selective dynamics as specified on POSCAR
 charge density and potential will be updated during run
 non-spin polarized calculation
 Conjugate gradient for all bands (Freysoldt, et al. PRB 79, 241103 (2009))
 preconditioned conjugated gradient                                        
 perform sub-space diagonalisation
    before iterative eigenvector-optimisation
 modified Broyden-mixing scheme, WC =      100.0
 initial mixing is a Kerker type mixing with AMIX =  0.4000 and BMIX =      1.0000
 Hartree-type preconditioning will be used
 using additional bands           91
 reciprocal scheme for non local part
 use partial core corrections
 no Harris-corrections to forces 
 use gradient corrections 
 use of overlap-Matrix (Vanderbilt PP)
 Gauss-broadening in eV      SIGMA  =   0.05


--------------------------------------------------------------------------------------------------------


  energy-cutoff  :      600.00
  volume of cell :     1504.93
      direct lattice vectors                 reciprocal lattice vectors
     8.404861995  0.000000000  0.000000000     0.118978753  0.000000000  0.000000000
     0.000000000  8.404861995  0.000000000     0.000000000  0.118978753  0.000000000
     0.000000000  0.000000000 21.303646496     0.000000000  0.000000000  0.046940321

  length of vectors
     8.404861995  8.404861995 21.303646496     0.118978753  0.118978753  0.046940321



 k-points in units of 2pi/SCALE and weight: pymatgen v2020.8.13 with grid density = 
   0.00000000  0.00000000  0.00000000       0.250
   0.05948938  0.00000000  0.00000000       0.250
   0.00000000  0.05948938  0.00000000       0.250
   0.05948938  0.05948938  0.00000000       0.250

 k-points in reciprocal lattice and weights: pymatgen v2020.8.13 with grid density = 
   0.00000000  0.00000000  0.00000000       0.250
   0.50000000  0.00000000  0.00000000       0.250
   0.00000000  0.50000000  0.00000000       0.250
   0.50000000  0.50000000  0.00000000       0.250

 position of ions in fractional coordinates (direct lattice) 
   0.50000000  0.50000000  0.76773171
   0.50000000  0.50000000  0.82077435
   0.25000000  0.00000000  0.35205241
   0.50000000  0.25000000  0.35205241
   0.25000000  0.25000000  0.45068414
   0.50000000  0.00000000  0.45068414
   0.25010747  0.00000000  0.54973995
   0.50000000  0.25051813  0.55001370
   0.24974349  0.24974349  0.64744792
   0.50000000  0.00000000  0.64757944
   0.25000000  0.50000000  0.35205241
   0.50000000  0.75000000  0.35205241
   0.25000000  0.75000000  0.45068414
   0.50000000  0.50000000  0.45068414
   0.25051813  0.50000000  0.55001370
   0.50000000  0.74948187  0.55001370
   0.24974349  0.75025651  0.64744792
   0.50000000  0.50000000  0.65019204
   0.75000000  0.00000000  0.35205241
   0.00000000  0.25000000  0.35205241
   0.75000000  0.25000000  0.45068414
   0.00000000  0.00000000  0.45068414
   0.74989253  0.00000000  0.54973995
   0.00000000  0.25010747  0.54973995
   0.75025651  0.24974349  0.64744792
   0.00000000  0.00000000  0.64767719
   0.75000000  0.50000000  0.35205241
   0.00000000  0.75000000  0.35205241
   0.75000000  0.75000000  0.45068414
   0.00000000  0.50000000  0.45068414
   0.74948187  0.50000000  0.55001370
   0.00000000  0.74989253  0.54973995
   0.75025651  0.75025651  0.64744792
   0.00000000  0.50000000  0.64757944
   0.25000000  0.00000000  0.45068414
   0.50000000  0.25000000  0.45068414
   0.25000000  0.25000000  0.35205241
   0.50000000  0.00000000  0.35205241
   0.24974288  0.00000000  0.64980624
   0.50000000  0.24888536  0.64991619
   0.24996204  0.24996204  0.54955175
   0.50000000  0.00000000  0.54949808
   0.25000000  0.50000000  0.45068414
   0.50000000  0.75000000  0.45068414
   0.25000000  0.75000000  0.35205241
   0.50000000  0.50000000  0.35205241
   0.24888536  0.50000000  0.64991619
   0.50000000  0.75111464  0.64991619
   0.24996204  0.75003796  0.54955175
   0.50000000  0.50000000  0.55000709
   0.75000000  0.00000000  0.45068414
   0.00000000  0.25000000  0.45068414
   0.75000000  0.25000000  0.35205241
   0.00000000  0.00000000  0.35205241
   0.75025712  0.00000000  0.64980624
   0.00000000  0.24974288  0.64980624
   0.75003796  0.24996204  0.54955175
   0.00000000  0.00000000  0.54951776
   0.75000000  0.50000000  0.45068414
   0.00000000  0.75000000  0.45068414
   0.75000000  0.75000000  0.35205241
   0.00000000  0.50000000  0.35205241
   0.75111464  0.50000000  0.64991619
   0.00000000  0.75025712  0.64980624
   0.75003796  0.75003796  0.54955175
   0.00000000  0.50000000  0.54949808

 position of ions in cartesian coordinates  (Angst):
   4.20243100  4.20243100 16.35548488
   4.20243100  4.20243100 17.48548653
   2.10121550  0.00000000  7.50000000
   4.20243100  2.10121550  7.50000000
   2.10121550  2.10121550  9.60121550
   4.20243100  0.00000000  9.60121550
   2.10211880  0.00000000 11.71146566
   4.20243100  2.10557033 11.71729751
   2.09905953  2.09905953 13.79300169
   4.20243100  0.00000000 13.79580352
   2.10121550  4.20243100  7.50000000
   4.20243100  6.30364650  7.50000000
   2.10121550  6.30364650  9.60121550
   4.20243100  4.20243100  9.60121550
   2.10557033  4.20243100 11.71729751
   4.20243100  6.29929167 11.71729751
   2.09905953  6.30580246 13.79300169
   4.20243100  4.20243100 13.85146147
   6.30364650  0.00000000  7.50000000
   0.00000000  2.10121550  7.50000000
   6.30364650  2.10121550  9.60121550
   0.00000000  0.00000000  9.60121550
   6.30274320  0.00000000 11.71146566
   0.00000000  2.10211880 11.71146566
   6.30580246  2.09905953 13.79300169
   0.00000000  0.00000000 13.79788585
   6.30364650  4.20243100  7.50000000
   0.00000000  6.30364650  7.50000000
   6.30364650  6.30364650  9.60121550
   0.00000000  4.20243100  9.60121550
   6.29929167  4.20243100 11.71729751
   0.00000000  6.30274320 11.71146566
   6.30580246  6.30580246 13.79300169
   0.00000000  4.20243100 13.79580352
   2.10121550  0.00000000  9.60121550
   4.20243100  2.10121550  9.60121550
   2.10121550  2.10121550  7.50000000
   4.20243100  0.00000000  7.50000000
   2.09905446  0.00000000 13.84324249
   4.20243100  2.09184713 13.84558474
   2.10089647  2.10089647 11.70745629
   4.20243100  0.00000000 11.70631278
   2.10121550  4.20243100  9.60121550
   4.20243100  6.30364650  9.60121550
   2.10121550  6.30364650  7.50000000
   4.20243100  4.20243100  7.50000000
   2.09184713  4.20243100 13.84558474
   4.20243100  6.31301486 13.84558474
   2.10089647  6.30396552 11.70745629
   4.20243100  4.20243100 11.71715660
   6.30364650  0.00000000  9.60121550
   0.00000000  2.10121550  9.60121550
   6.30364650  2.10121550  7.50000000
   0.00000000  0.00000000  7.50000000
   6.30580754  0.00000000 13.84324249
   0.00000000  2.09905446 13.84324249
   6.30396552  2.10089647 11.70745629
   0.00000000  0.00000000 11.70673204
   6.30364650  4.20243100  9.60121550
   0.00000000  6.30364650  9.60121550
   6.30364650  6.30364650  7.50000000
   0.00000000  4.20243100  7.50000000
   6.31301486  4.20243100 13.84558474
   0.00000000  6.30580754 13.84324249
   6.30396552  6.30396552 11.70745629
   0.00000000  4.20243100 11.70631278



--------------------------------------------------------------------------------------------------------


 k-point   1 :   0.0000 0.0000 0.0000  plane waves:   50225
 k-point   2 :   0.5000 0.0000 0.0000  plane waves:   50238
 k-point   3 :   0.0000 0.5000 0.0000  plane waves:   50238
 k-point   4 :   0.5000 0.5000 0.0000  plane waves:   50216

 maximum and minimum number of plane-waves per node :      6326     6243

 maximum number of plane-waves:     50238
 maximum index in each direction: 
   IXMAX=   16   IYMAX=   16   IZMAX=   42
   IXMIN=  -17   IYMIN=  -17   IZMIN=  -42


 parallel 3D FFT for wavefunctions:
    minimum data exchange during FFTs selected (reduces bandwidth)
 parallel 3D FFT for charge:
    minimum data exchange during FFTs selected (reduces bandwidth)


 FFT grid for exact exchange (Hartree Fock) 
  NGX = 54; NGY = 54; NGZ =140


 Radii for the augmentation spheres in the non-local exchange
 for species   1 augmentation radius   0.874 (default was   0.699)
       energy cutoff for augmentation   2400.0
 for species   2 augmentation radius   0.902 (default was   0.722)
       energy cutoff for augmentation   2400.0
 for species   3 augmentation radius   1.037 (default was   0.829)
       energy cutoff for augmentation   2400.0
 for species   4 augmentation radius   0.902 (default was   0.722)
       energy cutoff for augmentation   2400.0

 real space projection operators:
  total allocation   :       9875.02 KBytes
  max/ min on nodes  :       1372.88        915.95

 Maximum index for augmentation-charges in exchange          176
  SETUP_FOCK is finished

 total amount of memory used by VASP MPI-rank0    72834. kBytes
=======================================================================

   base      :      30000. kBytes
   nonl-proj :      17233. kBytes
   fftplans  :       7992. kBytes
   grid      :       8190. kBytes
   one-center:         73. kBytes
   HF        :        101. kBytes
   nonlr-proj:       3041. kBytes
   wavefun   :       6204. kBytes

     INWAV:  cpu time      0.0001: real time      0.0003
 Broyden mixing: mesh for mixing (old mesh)
   NGX = 33   NGY = 33   NGZ = 85
  (NGX  =140   NGY  =140   NGZ  =360)
  gives a total of  92565 points

 initial charge density was supplied:
 charge density of overlapping atoms calculated
 number of electron     458.0000000 magnetization 
 keeping initial charge density in first step


--------------------------------------------------------------------------------------------------------


 Maximum index for augmentation-charges          606 (set IRDMAX)


--------------------------------------------------------------------------------------------------------


    FEWALD:  cpu time      0.0029: real time      0.0029


--------------------------------------- Iteration      1(   1)  ---------------------------------------


    POTLOK:  cpu time      0.0786: real time      0.0799
    SETDIJ:  cpu time      0.1934: real time      0.1934
    TRIAL :  cpu time     18.9548: real time     19.0511
    CORREC:  cpu time      0.0012: real time      0.0012
    --------------------------------------------
      LOOP:  cpu time     19.2298: real time     19.3641

 eigenvalue-minimisations  :  3072
 total energy-change (2. order) : 0.1363605E+04  (-0.3109364E+05)
 number of electron     458.0000000 magnetization 
 augmentation part      458.0000000 magnetization 

 DIPCOR: dipole corrections for dipol
 direction  3 min pos     1,
 dipolmoment           0.000000      0.000000     -0.000281 electrons x Angstroem
 Tr[quadrupol]     -6264.557795

 energy correction for charged system         0.000000 eV
 dipol+quadrupol energy correction           -0.000000 eV
 added-field ion interaction          0.002255 eV  (added to PSCEN)


 Free energy of the ion-electron system (eV)
  ---------------------------------------------------
  alpha Z        PSCENC =       916.95228964
  Ewald energy   TEWEN  =    139150.57650482
  -Hartree energ DENC   =   -175247.56475184
  -exchange      EXHF   =         0.00000000
  -V(xc)+E(xc)   XCENC  =      1791.02613607
  PAW double counting   =     32310.01086261   -38519.19434489
  entropy T*S    EENTRO =        -0.02308428
  eigenvalues    EBANDS =     -7233.87261977
  atomic energy  EATOM  =     48195.69443388
  ---------------------------------------------------
  free energy    TOTEN  =      1363.60542625 eV

  energy without entropy =     1363.62851052  energy(sigma->0) =     1363.61696838
  exchange ACFDT corr.  =         0.00000000  see jH, gK, PRB 81, 115126


--------------------------------------------------------------------------------------------------------




--------------------------------------- Iteration      1(   2)  ---------------------------------------


    TRIAL :  cpu time      3.9419: real time      3.9432
    CORREC:  cpu time      0.0003: real time      0.0003
    --------------------------------------------
      LOOP:  cpu time      3.9482: real time      3.9589

 eigenvalue-minimisations  :  3072
 total energy-change (2. order) :-0.4326610E+04  (-0.4253382E+04)
 number of electron     458.0000000 magnetization 
 augmentation part      458.0000000 magnetization 

 DIPCOR: dipole corrections for dipol
 direction  3 min pos     1,
 dipolmoment           0.000000      0.000000     -0.000281 electrons x Angstroem
 Tr[quadrupol]     -6264.557795

 energy correction for charged system         0.000000 eV
 dipol+quadrupol energy correction           -0.000000 eV
 added-field ion interaction          0.002255 eV  (added to PSCEN)


 Free energy of the ion-electron system (eV)
  ---------------------------------------------------
  alpha Z        PSCENC =       916.95228964
  Ewald energy   TEWEN  =    139150.57650482
  -Hartree energ DENC   =   -175247.56475184
  -exchange      EXHF   =         0.00000000
  -V(xc)+E(xc)   XCENC  =      1791.02613607
  PAW double counting   =     32310.01086261   -38519.19434489
  entropy T*S    EENTRO =        -0.00000000
  eigenvalues    EBANDS =    -11560.50615571
  atomic energy  EATOM  =     48195.69443388
  ---------------------------------------------------
  free energy    TOTEN  =     -2963.00502541 eV

  energy without entropy =    -2963.00502541  energy(sigma->0) =    -2963.00502541
  exchange ACFDT corr.  =         0.00000000  see jH, gK, PRB 81, 115126


--------------------------------------------------------------------------------------------------------




--------------------------------------- Iteration      1(   3)  ---------------------------------------


    TRIAL :  cpu time      4.1744: real time      4.1754
    CORREC:  cpu time      0.0003: real time      0.0003
    --------------------------------------------
      LOOP:  cpu time      4.1810: real time      4.1898

 eigenvalue-minimisations  :  3072
 total energy-change (2. order) :-0.3157914E+03  (-0.3137033E+03)
 number of electron     458.0000000 magnetization 
 augmentation part      458.0000000 magnetization 

 DIPCOR: dipole corrections for dipol
 direction  3 min pos     1,
 dipolmoment           0.000000      0.000000     -0.000281 electrons x Angstroem
 Tr[quadrupol]     -6264.557795

 energy correction for charged system         0.000000 eV
 dipol+quadrupol energy correction           -0.000000 eV
 added-field ion interaction          0.002255 eV  (added to PSCEN)


 Free energy of the ion-electron system (eV)
  ---------------------------------------------------
  alpha Z        PSCENC =       916.95228964
  Ewald energy   TEWEN  =    139150.57650482
  -Hartree energ DENC   =   -175247.56475184
  -exchange      EXHF   =         0.00000000
  -V(xc)+E(xc)   XCENC  =      1791.02613607
  PAW double counting   =     32310.01086261   -38519.19434489
  entropy T*S    EENTRO =        -0.00000000
  eigenvalues    EBANDS =    -11876.29758708
  atomic energy  EATOM  =     48195.69443388
  ---------------------------------------------------
  free energy    TOTEN  =     -3278.79645679 eV

  energy without entropy =    -3278.79645679  energy(sigma->0) =    -3278.79645679
  exchange ACFDT corr.  =         0.00000000  see jH, gK, PRB 81, 115126


--------------------------------------------------------------------------------------------------------




--------------------------------------- Iteration      1(   4)  ---------------------------------------


    TRIAL :  cpu time      4.2277: real time      4.2288
    CORREC:  cpu time      0.0003: real time      0.0003
    --------------------------------------------
      LOOP:  cpu time      4.2417: real time      4.2432

 eigenvalue-minimisations  :  3136
 total energy-change (2. order) :-0.6114383E+01  (-0.6107962E+01)
 number of electron     458.0000000 magnetization 
 augmentation part      458.0000000 magnetization 

 DIPCOR: dipole corrections for dipol
 direction  3 min pos     1,
 dipolmoment           0.000000      0.000000     -0.000281 electrons x Angstroem
 Tr[quadrupol]     -6264.557795

 energy correction for charged system         0.000000 eV
 dipol+quadrupol energy correction           -0.000000 eV
 added-field ion interaction          0.002255 eV  (added to PSCEN)


 Free energy of the ion-electron system (eV)
  ---------------------------------------------------
  alpha Z        PSCENC =       916.95228964
  Ewald energy   TEWEN  =    139150.57650482
  -Hartree energ DENC   =   -175247.56475184
  -exchange      EXHF   =         0.00000000
  -V(xc)+E(xc)   XCENC  =      1791.02613607
  PAW double counting   =     32310.01086261   -38519.19434489
  entropy T*S    EENTRO =        -0.00000000
  eigenvalues    EBANDS =    -11882.41197041
  atomic energy  EATOM  =     48195.69443388
  ---------------------------------------------------
  free energy    TOTEN  =     -3284.91084012 eV

  energy without entropy =    -3284.91084012  energy(sigma->0) =    -3284.91084012
  exchange ACFDT corr.  =         0.00000000  see jH, gK, PRB 81, 115126


--------------------------------------------------------------------------------------------------------




--------------------------------------- Iteration      1(   5)  ---------------------------------------


    POTLOK:  cpu time      0.1948: real time      0.1951
    SETDIJ:  cpu time      0.6338: real time      0.6338
    TRIAL :  cpu time    102.0267: real time    102.0553
    CORREC:  cpu time      0.0003: real time      0.0003
    CHARGE:  cpu time      0.0425: real time      0.0430
    --------------------------------------------
      LOOP:  cpu time    102.9121: real time    102.9417

 eigenvalue-minimisations  :  3072
 total energy-change (2. order) : 0.2747900E+04  (-0.1467974E+01)
 number of electron     457.9999584 magnetization 
 augmentation part      160.8130090 magnetization 

 DIPCOR: dipole corrections for dipol
 direction  3 min pos     1,
 dipolmoment           0.000000      0.000000     -0.000281 electrons x Angstroem
 Tr[quadrupol]     -6264.557795

 energy correction for charged system         0.000000 eV
 dipol+quadrupol energy correction           -0.000000 eV
 added-field ion interaction          0.002255 eV  (added to PSCEN)


 Free energy of the ion-electron system (eV)
  ---------------------------------------------------
  alpha Z        PSCENC =       916.95228964
  Ewald energy   TEWEN  =    139150.57650482
  -Hartree energ DENC   =   -175247.56475184
  -exchange      EXHF   =      1362.61731797
  -V(xc)+E(xc)   XCENC  =      1424.46328505
  PAW double counting   =     32649.43877705   -36331.98648824
  entropy T*S    EENTRO =        -0.00000000
  eigenvalues    EBANDS =    -12657.20197688
  atomic energy  EATOM  =     48195.69443388
  ---------------------------------------------------
  free energy    TOTEN  =      -537.01060854 eV

  energy without entropy =     -537.01060854  energy(sigma->0) =     -537.01060854
  exchange ACFDT corr.  =         0.00000000  see jH, gK, PRB 81, 115126


--------------------------------------------------------------------------------------------------------




--------------------------------------- Iteration      1(   6)  ---------------------------------------


    POTLOK:  cpu time      0.1698: real time      0.1698
    SETDIJ:  cpu time      0.6311: real time      0.6311
    TRIAL :  cpu time     98.8805: real time     98.8906
    CORREC:  cpu time     99.1463: real time     99.1567
    CHARGE:  cpu time      0.0432: real time      0.0432
    --------------------------------------------
      LOOP:  cpu time    198.8858: real time    198.9065

 eigenvalue-minimisations  :     0
 total energy-change (2. order) : 0.2286157E+03  (-0.1212489E+03)
 number of electron     457.9999572 magnetization 
 augmentation part      157.2886364 magnetization 

 DIPCOR: dipole corrections for dipol
 direction  3 min pos     1,
 dipolmoment           0.000000      0.000000      0.292951 electrons x Angstroem
 Tr[quadrupol]     -6296.463134

 energy correction for charged system         0.000000 eV
 dipol+quadrupol energy correction           -0.005160 eV
 added-field ion interaction         -2.349164 eV  (added to PSCEN)


 Free energy of the ion-electron system (eV)
  ---------------------------------------------------
  alpha Z        PSCENC =       912.68121649
  Ewald energy   TEWEN  =    139150.57650482
  -Hartree energ DENC   =   -179382.49478146
  -exchange      EXHF   =      1370.06827557
  -V(xc)+E(xc)   XCENC  =      1541.83207444
  PAW double counting   =     37877.76321630   -41523.53039318
  entropy T*S    EENTRO =        -0.00000000
  eigenvalues    EBANDS =     -8450.98548091
  atomic energy  EATOM  =     48195.69443388
  ---------------------------------------------------
  free energy    TOTEN  =      -308.39493403 eV

  energy without entropy =     -308.39493403  energy(sigma->0) =     -308.39493403
  exchange ACFDT corr.  =         0.00000000  see jH, gK, PRB 81, 115126


--------------------------------------------------------------------------------------------------------




--------------------------------------- Iteration      1(   7)  ---------------------------------------


    POTLOK:  cpu time      0.1984: real time      0.1984
    SETDIJ:  cpu time      0.6319: real time      0.6319
    TRIAL :  cpu time     98.5615: real time     98.5706
    CORREC:  cpu time     98.9093: real time     98.9188
    CHARGE:  cpu time      0.0431: real time      0.0431
    --------------------------------------------
      LOOP:  cpu time    198.3512: real time    198.3788

 eigenvalue-minimisations  :     0
 total energy-change (2. order) :-0.1219514E+03  (-0.9859395E+01)
 number of electron     457.9999575 magnetization 
 augmentation part      155.3675438 magnetization 

 DIPCOR: dipole corrections for dipol
 direction  3 min pos     1,
 dipolmoment           0.000000      0.000000      0.233545 electrons x Angstroem
 Tr[quadrupol]     -6306.838746

 energy correction for charged system         0.000000 eV
 dipol+quadrupol energy correction           -0.003279 eV
 added-field ion interaction         -1.872785 eV  (added to PSCEN)


 Free energy of the ion-electron system (eV)
  ---------------------------------------------------
  alpha Z        PSCENC =       914.32749150
  Ewald energy   TEWEN  =    139150.57650482
  -Hartree energ DENC   =   -177300.73367030
  -exchange      EXHF   =      1316.63202992
  -V(xc)+E(xc)   XCENC  =      1476.87531096
  PAW double counting   =     36635.87810159   -40337.34417139
  entropy T*S    EENTRO =        -0.00000000
  eigenvalues    EBANDS =    -10482.25241449
  atomic energy  EATOM  =     48195.69443388
  ---------------------------------------------------
  free energy    TOTEN  =      -430.34638352 eV

  energy without entropy =     -430.34638352  energy(sigma->0) =     -430.34638352
  exchange ACFDT corr.  =         0.00000000  see jH, gK, PRB 81, 115126


--------------------------------------------------------------------------------------------------------




--------------------------------------- Iteration      1(   8)  ---------------------------------------


    POTLOK:  cpu time      0.1728: real time      0.1728
    SETDIJ:  cpu time      0.6319: real time      0.6319
    TRIAL :  cpu time     98.5507: real time     98.5602
    CORREC:  cpu time     98.8733: real time     98.8827
    CHARGE:  cpu time      0.0408: real time      0.0408
    --------------------------------------------
      LOOP:  cpu time    198.2840: real time    198.3034

 eigenvalue-minimisations  :     0
 total energy-change (2. order) :-0.9922487E+01  (-0.6358848E+01)
 number of electron     457.9999571 magnetization 
 augmentation part      155.4531370 magnetization 

 DIPCOR: dipole corrections for dipol
 direction  3 min pos     1,
 dipolmoment           0.000000      0.000000      0.124036 electrons x Angstroem
 Tr[quadrupol]     -6307.941443

 energy correction for charged system         0.000000 eV
 dipol+quadrupol energy correction           -0.000925 eV
 added-field ion interaction         -0.994638 eV  (added to PSCEN)


 Free energy of the ion-electron system (eV)
  ---------------------------------------------------
  alpha Z        PSCENC =       915.40087419
  Ewald energy   TEWEN  =    139150.57650482
  -Hartree energ DENC   =   -177346.45676489
  -exchange      EXHF   =      1310.57062721
  -V(xc)+E(xc)   XCENC  =      1468.49168060
  PAW double counting   =     36553.57114146   -40193.69278481
  entropy T*S    EENTRO =        -0.00000000
  eigenvalues    EBANDS =    -10494.42458254
  atomic energy  EATOM  =     48195.69443388
  ---------------------------------------------------
  free energy    TOTEN  =      -440.26887008 eV

  energy without entropy =     -440.26887008  energy(sigma->0) =     -440.26887008
  exchange ACFDT corr.  =         0.00000000  see jH, gK, PRB 81, 115126


--------------------------------------------------------------------------------------------------------




--------------------------------------- Iteration      1(   9)  ---------------------------------------


    POTLOK:  cpu time      0.1735: real time      0.1735
    SETDIJ:  cpu time      0.6329: real time      0.6329
    TRIAL :  cpu time     98.5739: real time     98.5810
    CORREC:  cpu time     98.8987: real time     98.9068
    CHARGE:  cpu time      0.0411: real time      0.0411
    --------------------------------------------
      LOOP:  cpu time    198.3263: real time    198.3503

 eigenvalue-minimisations  :     0
 total energy-change (2. order) :-0.6286395E+01  (-0.3196049E+01)
 number of electron     457.9999570 magnetization 
 augmentation part      155.4366164 magnetization 

 DIPCOR: dipole corrections for dipol
 direction  3 min pos     1,
 dipolmoment           0.000000      0.000000      0.075457 electrons x Angstroem
 Tr[quadrupol]     -6302.752636

 energy correction for charged system         0.000000 eV
 dipol+quadrupol energy correction           -0.000342 eV
 added-field ion interaction         -0.605090 eV  (added to PSCEN)


 Free energy of the ion-electron system (eV)
  ---------------------------------------------------
  alpha Z        PSCENC =       916.26252385
  Ewald energy   TEWEN  =    139150.57650482
  -Hartree energ DENC   =   -177264.11504760
  -exchange      EXHF   =      1308.02751345
  -V(xc)+E(xc)   XCENC  =      1466.81459224
  PAW double counting   =     36449.53227051   -40127.13431381
  entropy T*S    EENTRO =        -0.00000000
  eigenvalues    EBANDS =    -10542.21374219
  atomic energy  EATOM  =     48195.69443388
  ---------------------------------------------------
  free energy    TOTEN  =      -446.55526484 eV

  energy without entropy =     -446.55526484  energy(sigma->0) =     -446.55526484
  exchange ACFDT corr.  =         0.00000000  see jH, gK, PRB 81, 115126


--------------------------------------------------------------------------------------------------------




--------------------------------------- Iteration      1(  10)  ---------------------------------------


    POTLOK:  cpu time      0.1770: real time      0.1770
    SETDIJ:  cpu time      0.6331: real time      0.6334
    TRIAL :  cpu time     98.6130: real time     98.6200
    CORREC:  cpu time     98.9092: real time     98.9188
    CHARGE:  cpu time      0.0408: real time      0.0408
    --------------------------------------------
      LOOP:  cpu time    198.3884: real time    198.4056

 eigenvalue-minimisations  :     0
 total energy-change (2. order) :-0.3202566E+01  (-0.1207755E+01)
 number of electron     457.9999571 magnetization 
 augmentation part      155.3137617 magnetization 

 DIPCOR: dipole corrections for dipol
 direction  3 min pos     1,
 dipolmoment           0.000000      0.000000      0.099642 electrons x Angstroem
 Tr[quadrupol]     -6300.235187

 energy correction for charged system         0.000000 eV
 dipol+quadrupol energy correction           -0.000597 eV
 added-field ion interaction         -0.799024 eV  (added to PSCEN)


 Free energy of the ion-electron system (eV)
  ---------------------------------------------------
  alpha Z        PSCENC =       916.33619973
  Ewald energy   TEWEN  =    139150.57650482
  -Hartree energ DENC   =   -177096.40248520
  -exchange      EXHF   =      1305.23747912
  -V(xc)+E(xc)   XCENC  =      1464.73842006
  PAW double counting   =     36305.67291676   -39992.38713437
  entropy T*S    EENTRO =        -0.00000000
  eigenvalues    EBANDS =    -10699.22416560
  atomic energy  EATOM  =     48195.69443388
  ---------------------------------------------------
  free energy    TOTEN  =      -449.75783079 eV

  energy without entropy =     -449.75783079  energy(sigma->0) =     -449.75783079
  exchange ACFDT corr.  =         0.00000000  see jH, gK, PRB 81, 115126


--------------------------------------------------------------------------------------------------------




--------------------------------------- Iteration      1(  11)  ---------------------------------------


    POTLOK:  cpu time      0.1770: real time      0.1770
    SETDIJ:  cpu time      0.6332: real time      0.6333
    TRIAL :  cpu time     98.5976: real time     98.6061
    CORREC:  cpu time     98.9197: real time     98.9266
    CHARGE:  cpu time      0.0409: real time      0.0409
    --------------------------------------------
      LOOP:  cpu time    198.3757: real time    198.3988

 eigenvalue-minimisations  :     0
 total energy-change (2. order) :-0.1209806E+01  (-0.4359386E+00)
 number of electron     457.9999572 magnetization 
 augmentation part      155.4276347 magnetization 

 DIPCOR: dipole corrections for dipol
 direction  3 min pos     1,
 dipolmoment           0.000000      0.000000      0.119123 electrons x Angstroem
 Tr[quadrupol]     -6299.989593

 energy correction for charged system         0.000000 eV
 dipol+quadrupol energy correction           -0.000853 eV
 added-field ion interaction         -0.955245 eV  (added to PSCEN)


 Free energy of the ion-electron system (eV)
  ---------------------------------------------------
  alpha Z        PSCENC =       916.17695294
  Ewald energy   TEWEN  =    139150.57650482
  -Hartree energ DENC   =   -176990.08816084
  -exchange      EXHF   =      1303.67782163
  -V(xc)+E(xc)   XCENC  =      1463.44232120
  PAW double counting   =     36221.19236723   -39896.18007111
  entropy T*S    EENTRO =        -0.00000000
  eigenvalues    EBANDS =    -10815.45980698
  atomic energy  EATOM  =     48195.69443388
  ---------------------------------------------------
  free energy    TOTEN  =      -450.96763723 eV

  energy without entropy =     -450.96763723  energy(sigma->0) =     -450.96763723
  exchange ACFDT corr.  =        -0.00000000  see jH, gK, PRB 81, 115126


--------------------------------------------------------------------------------------------------------




--------------------------------------- Iteration      1(  12)  ---------------------------------------


    POTLOK:  cpu time      0.1782: real time      0.1782
    SETDIJ:  cpu time      0.6334: real time      0.6334
    TRIAL :  cpu time     98.5860: real time     98.5956
    CORREC:  cpu time     98.9610: real time     98.9683
    CHARGE:  cpu time      0.0403: real time      0.0404
    --------------------------------------------
      LOOP:  cpu time    198.4134: real time    198.4306

 eigenvalue-minimisations  :     0
 total energy-change (2. order) :-0.4359403E+00  (-0.1550491E+00)
 number of electron     457.9999572 magnetization 
 augmentation part      155.5955431 magnetization 

 DIPCOR: dipole corrections for dipol
 direction  3 min pos     1,
 dipolmoment           0.000000      0.000000      0.131871 electrons x Angstroem
 Tr[quadrupol]     -6299.947761

 energy correction for charged system         0.000000 eV
 dipol+quadrupol energy correction           -0.001046 eV
 added-field ion interaction         -1.057469 eV  (added to PSCEN)


 Free energy of the ion-electron system (eV)
  ---------------------------------------------------
  alpha Z        PSCENC =       915.98972967
  Ewald energy   TEWEN  =    139150.57650482
  -Hartree energ DENC   =   -176968.41739306
  -exchange      EXHF   =      1303.54151077
  -V(xc)+E(xc)   XCENC  =      1463.64324245
  PAW double counting   =     36197.42637815   -39870.56725055
  entropy T*S    EENTRO =        -0.00000000
  eigenvalues    EBANDS =    -10839.29073372
  atomic energy  EATOM  =     48195.69443388
  ---------------------------------------------------
  free energy    TOTEN  =      -451.40357758 eV

  energy without entropy =     -451.40357758  energy(sigma->0) =     -451.40357758
  exchange ACFDT corr.  =         0.00000000  see jH, gK, PRB 81, 115126


--------------------------------------------------------------------------------------------------------




--------------------------------------- Iteration      1(  13)  ---------------------------------------


    POTLOK:  cpu time      0.1773: real time      0.1773
    SETDIJ:  cpu time      0.6333: real time      0.6333
    TRIAL :  cpu time     98.6704: real time     98.6775
    CORREC:  cpu time     98.9379: real time     98.9445
    CHARGE:  cpu time      0.0409: real time      0.0409
    --------------------------------------------
      LOOP:  cpu time    198.4740: real time    198.4881

 eigenvalue-minimisations  :     0
 total energy-change (2. order) :-0.1550536E+00  (-0.6364765E-01)
 number of electron     457.9999572 magnetization 
 augmentation part      155.6669635 magnetization 

 DIPCOR: dipole corrections for dipol
 direction  3 min pos     1,
 dipolmoment           0.000000      0.000000      0.134914 electrons x Angstroem
 Tr[quadrupol]     -6299.979563

 energy correction for charged system         0.000000 eV
 dipol+quadrupol energy correction           -0.001094 eV
 added-field ion interaction         -1.081868 eV  (added to PSCEN)


 Free energy of the ion-electron system (eV)
  ---------------------------------------------------
  alpha Z        PSCENC =       915.88747128
  Ewald energy   TEWEN  =    139150.57650482
  -Hartree energ DENC   =   -176980.11552921
  -exchange      EXHF   =      1303.84868996
  -V(xc)+E(xc)   XCENC  =      1464.21379870
  PAW double counting   =     36199.76696046   -39877.15824349
  entropy T*S    EENTRO =        -0.00000000
  eigenvalues    EBANDS =    -10824.27271759
  atomic energy  EATOM  =     48195.69443388
  ---------------------------------------------------
  free energy    TOTEN  =      -451.55863119 eV

  energy without entropy =     -451.55863119  energy(sigma->0) =     -451.55863119
  exchange ACFDT corr.  =        -0.00000000  see jH, gK, PRB 81, 115126


--------------------------------------------------------------------------------------------------------




--------------------------------------- Iteration      1(  14)  ---------------------------------------


    POTLOK:  cpu time      0.1783: real time      0.1783
    SETDIJ:  cpu time      0.6337: real time      0.6338
    TRIAL :  cpu time     98.5609: real time     98.5680
    CORREC:  cpu time     98.9648: real time     98.9725
    CHARGE:  cpu time      0.0403: real time      0.0403
[...]
      6.303646  0.000000  7.500000            0           0           0  
      0.000000  2.101215  7.500000            0           0           0  
      6.303646  2.101215  9.601215            0           0           0  
      0.000000  0.000000  9.601215            0           0           0  
      6.302743  0.000000 11.711466            0           0           0  
      0.000000  2.102119 11.711466            0           0           0  
      6.305802  2.099060 13.793002            0           0           0  
      0.000000  0.000000 13.797886            0           0           0  
      6.303646  4.202431  7.500000            0           0           0  
      0.000000  6.303646  7.500000            0           0           0  
      6.303646  6.303646  9.601215            0           0           0  
      0.000000  4.202431  9.601215            0           0           0  
      6.299292  4.202431 11.717298            0           0           0  
      0.000000  6.302743 11.711466            0           0           0  
      6.305802  6.305802 13.793002            0           0           0  
      0.000000  4.202431 13.795804            0           0           0  
      2.101215  0.000000  9.601215            0           0           0  
      4.202431  2.101215  9.601215            0           0           0  
      2.101215  2.101215  7.500000            0           0           0  
      4.202431  0.000000  7.500000            0           0           0  
      2.099054  0.000000 13.843242            0           0           0  
      4.202431  2.091847 13.845585            0           0           0  
      2.100896  2.100896 11.707456            0           0           0  
      4.202431  0.000000 11.706313            0           0           0  
      2.101215  4.202431  9.601215            0           0           0  
      4.202431  6.303646  9.601215            0           0           0  
      2.101215  6.303646  7.500000            0           0           0  
      4.202431  4.202431  7.500000            0           0           0  
      2.091847  4.202431 13.845585            0           0           0  
      4.202431  6.313015 13.845585            0           0           0  
      2.100896  6.303966 11.707456            0           0           0  
      4.202431  4.202431 11.717157            0           0           0  
      6.303646  0.000000  9.601215            0           0           0  
      0.000000  2.101215  9.601215            0           0           0  
      6.303646  2.101215  7.500000            0           0           0  
      0.000000  0.000000  7.500000            0           0           0  
      6.305808  0.000000 13.843242            0           0           0  
      0.000000  2.099054 13.843242            0           0           0  
      6.303966  2.100896 11.707456            0           0           0  
      0.000000  0.000000 11.706732            0           0           0  
      6.303646  4.202431  9.601215            0           0           0  
      0.000000  6.303646  9.601215            0           0           0  
      6.303646  6.303646  7.500000            0           0           0  
      0.000000  4.202431  7.500000            0           0           0  
      6.313015  4.202431 13.845585            0           0           0  
      0.000000  6.305808 13.843242            0           0           0  
      6.303966  6.303966 11.707456            0           0           0  
      0.000000  4.202431 11.706313            0           0           0  

   4 f  =    2.811232 THz    17.663493 2PiTHz   93.772615 cm-1    11.626317 meV
             X         Y         Z           dx          dy          dz
      4.202431  4.202431 16.355485    -0.009464   -0.012573    0.653145  
      4.202431  4.202431 17.485487    -0.016841   -0.020403    0.756607  
      2.101215  0.000000  7.500000            0           0           0  
      4.202431  2.101215  7.500000            0           0           0  
      2.101215  2.101215  9.601215            0           0           0  
      4.202431  0.000000  9.601215            0           0           0  
      2.102119  0.000000 11.711466            0           0           0  
      4.202431  2.105570 11.717298            0           0           0  
      2.099060  2.099060 13.793002            0           0           0  
      4.202431  0.000000 13.795804            0           0           0  
      2.101215  4.202431  7.500000            0           0           0  
      4.202431  6.303646  7.500000            0           0           0  
      2.101215  6.303646  9.601215            0           0           0  
      4.202431  4.202431  9.601215            0           0           0  
      2.105570  4.202431 11.717298            0           0           0  
      4.202431  6.299292 11.717298            0           0           0  
      2.099060  6.305802 13.793002            0           0           0  
      4.202431  4.202431 13.851461            0           0           0  
      6.303646  0.000000  7.500000            0           0           0  
      0.000000  2.101215  7.500000            0           0           0  
      6.303646  2.101215  9.601215            0           0           0  
      0.000000  0.000000  9.601215            0           0           0  
      6.302743  0.000000 11.711466            0           0           0  
      0.000000  2.102119 11.711466            0           0           0  
      6.305802  2.099060 13.793002            0           0           0  
      0.000000  0.000000 13.797886            0           0           0  
      6.303646  4.202431  7.500000            0           0           0  
      0.000000  6.303646  7.500000            0           0           0  
      6.303646  6.303646  9.601215            0           0           0  
      0.000000  4.202431  9.601215            0           0           0  
      6.299292  4.202431 11.717298            0           0           0  
      0.000000  6.302743 11.711466            0           0           0  
      6.305802  6.305802 13.793002            0           0           0  
      0.000000  4.202431 13.795804            0           0           0  
      2.101215  0.000000  9.601215            0           0           0  
      4.202431  2.101215  9.601215            0           0           0  
      2.101215  2.101215  7.500000            0           0           0  
      4.202431  0.000000  7.500000            0           0           0  
      2.099054  0.000000 13.843242            0           0           0  
      4.202431  2.091847 13.845585            0           0           0  
      2.100896  2.100896 11.707456            0           0           0  
      4.202431  0.000000 11.706313            0           0           0  
      2.101215  4.202431  9.601215            0           0           0  
      4.202431  6.303646  9.601215            0           0           0  
      2.101215  6.303646  7.500000            0           0           0  
      4.202431  4.202431  7.500000            0           0           0  
      2.091847  4.202431 13.845585            0           0           0  
      4.202431  6.313015 13.845585            0           0           0  
      2.100896  6.303966 11.707456            0           0           0  
      4.202431  4.202431 11.717157            0           0           0  
      6.303646  0.000000  9.601215            0           0           0  
      0.000000  2.101215  9.601215            0           0           0  
      6.303646  2.101215  7.500000            0           0           0  
      0.000000  0.000000  7.500000            0           0           0  
      6.305808  0.000000 13.843242            0           0           0  
      0.000000  2.099054 13.843242            0           0           0  
      6.303966  2.100896 11.707456            0           0           0  
      0.000000  0.000000 11.706732            0           0           0  
      6.303646  4.202431  9.601215            0           0           0  
      0.000000  6.303646  9.601215            0           0           0  
      6.303646  6.303646  7.500000            0           0           0  
      0.000000  4.202431  7.500000            0           0           0  
      6.313015  4.202431 13.845585            0           0           0  
      0.000000  6.305808 13.843242            0           0           0  
      6.303966  6.303966 11.707456            0           0           0  
      0.000000  4.202431 11.706313            0           0           0  

   5 f/i=    0.417712 THz     2.624562 2PiTHz   13.933374 cm-1     1.727517 meV
             X         Y         Z           dx          dy          dz
      4.202431  4.202431 16.355485     0.106921   -0.365123   -0.011159  
      4.202431  4.202431 17.485487     0.268437   -0.884817   -0.012982  
      2.101215  0.000000  7.500000            0           0           0  
      4.202431  2.101215  7.500000            0           0           0  
      2.101215  2.101215  9.601215            0           0           0  
      4.202431  0.000000  9.601215            0           0           0  
      2.102119  0.000000 11.711466            0           0           0  
      4.202431  2.105570 11.717298            0           0           0  
      2.099060  2.099060 13.793002            0           0           0  
      4.202431  0.000000 13.795804            0           0           0  
      2.101215  4.202431  7.500000            0           0           0  
      4.202431  6.303646  7.500000            0           0           0  
      2.101215  6.303646  9.601215            0           0           0  
      4.202431  4.202431  9.601215            0           0           0  
      2.105570  4.202431 11.717298            0           0           0  
      4.202431  6.299292 11.717298            0           0           0  
      2.099060  6.305802 13.793002            0           0           0  
      4.202431  4.202431 13.851461            0           0           0  
      6.303646  0.000000  7.500000            0           0           0  
      0.000000  2.101215  7.500000            0           0           0  
      6.303646  2.101215  9.601215            0           0           0  
      0.000000  0.000000  9.601215            0           0           0  
      6.302743  0.000000 11.711466            0           0           0  
      0.000000  2.102119 11.711466            0           0           0  
      6.305802  2.099060 13.793002            0           0           0  
      0.000000  0.000000 13.797886            0           0           0  
      6.303646  4.202431  7.500000            0           0           0  
      0.000000  6.303646  7.500000            0           0           0  
      6.303646  6.303646  9.601215            0           0           0  
      0.000000  4.202431  9.601215            0           0           0  
      6.299292  4.202431 11.717298            0           0           0  
      0.000000  6.302743 11.711466            0           0           0  
      6.305802  6.305802 13.793002            0           0           0  
      0.000000  4.202431 13.795804            0           0           0  
      2.101215  0.000000  9.601215            0           0           0  
      4.202431  2.101215  9.601215            0           0           0  
      2.101215  2.101215  7.500000            0           0           0  
      4.202431  0.000000  7.500000            0           0           0  
      2.099054  0.000000 13.843242            0           0           0  
      4.202431  2.091847 13.845585            0           0           0  
      2.100896  2.100896 11.707456            0           0           0  
      4.202431  0.000000 11.706313            0           0           0  
      2.101215  4.202431  9.601215            0           0           0  
      4.202431  6.303646  9.601215            0           0           0  
      2.101215  6.303646  7.500000            0           0           0  
      4.202431  4.202431  7.500000            0           0           0  
      2.091847  4.202431 13.845585            0           0           0  
      4.202431  6.313015 13.845585            0           0           0  
      2.100896  6.303966 11.707456            0           0           0  
      4.202431  4.202431 11.717157            0           0           0  
      6.303646  0.000000  9.601215            0           0           0  
      0.000000  2.101215  9.601215            0           0           0  
      6.303646  2.101215  7.500000            0           0           0  
      0.000000  0.000000  7.500000            0           0           0  
      6.305808  0.000000 13.843242            0           0           0  
      0.000000  2.099054 13.843242            0           0           0  
      6.303966  2.100896 11.707456            0           0           0  
      0.000000  0.000000 11.706732            0           0           0  
      6.303646  4.202431  9.601215            0           0           0  
      0.000000  6.303646  9.601215            0           0           0  
      6.303646  6.303646  7.500000            0           0           0  
      0.000000  4.202431  7.500000            0           0           0  
      6.313015  4.202431 13.845585            0           0           0  
      0.000000  6.305808 13.843242            0           0           0  
      6.303966  6.303966 11.707456            0           0           0  
      0.000000  4.202431 11.706313            0           0           0  

   6 f/i=    0.528363 THz     3.319804 2PiTHz   17.624302 cm-1     2.185134 meV
             X         Y         Z           dx          dy          dz
      4.202431  4.202431 16.355485     0.358766    0.109848    0.016419  
      4.202431  4.202431 17.485487     0.887373    0.266749    0.019084  
      2.101215  0.000000  7.500000            0           0           0  
      4.202431  2.101215  7.500000            0           0           0  
      2.101215  2.101215  9.601215            0           0           0  
      4.202431  0.000000  9.601215            0           0           0  
      2.102119  0.000000 11.711466            0           0           0  
      4.202431  2.105570 11.717298            0           0           0  
      2.099060  2.099060 13.793002            0           0           0  
      4.202431  0.000000 13.795804            0           0           0  
      2.101215  4.202431  7.500000            0           0           0  
      4.202431  6.303646  7.500000            0           0           0  
      2.101215  6.303646  9.601215            0           0           0  
      4.202431  4.202431  9.601215            0           0           0  
      2.105570  4.202431 11.717298            0           0           0  
      4.202431  6.299292 11.717298            0           0           0  
      2.099060  6.305802 13.793002            0           0           0  
      4.202431  4.202431 13.851461            0           0           0  
      6.303646  0.000000  7.500000            0           0           0  
      0.000000  2.101215  7.500000            0           0           0  
      6.303646  2.101215  9.601215            0           0           0  
      0.000000  0.000000  9.601215            0           0           0  
      6.302743  0.000000 11.711466            0           0           0  
      0.000000  2.102119 11.711466            0           0           0  
      6.305802  2.099060 13.793002            0           0           0  
      0.000000  0.000000 13.797886            0           0           0  
      6.303646  4.202431  7.500000            0           0           0  
      0.000000  6.303646  7.500000            0           0           0  
      6.303646  6.303646  9.601215            0           0           0  
      0.000000  4.202431  9.601215            0           0           0  
      6.299292  4.202431 11.717298            0           0           0  
      0.000000  6.302743 11.711466            0           0           0  
      6.305802  6.305802 13.793002            0           0           0  
      0.000000  4.202431 13.795804            0           0           0  
      2.101215  0.000000  9.601215            0           0           0  
      4.202431  2.101215  9.601215            0           0           0  
      2.101215  2.101215  7.500000            0           0           0  
      4.202431  0.000000  7.500000            0           0           0  
      2.099054  0.000000 13.843242            0           0           0  
      4.202431  2.091847 13.845585            0           0           0  
      2.100896  2.100896 11.707456            0           0           0  
      4.202431  0.000000 11.706313            0           0           0  
      2.101215  4.202431  9.601215            0           0           0  
      4.202431  6.303646  9.601215            0           0           0  
      2.101215  6.303646  7.500000            0           0           0  
      4.202431  4.202431  7.500000            0           0           0  
      2.091847  4.202431 13.845585            0           0           0  
      4.202431  6.313015 13.845585            0           0           0  
      2.100896  6.303966 11.707456            0           0           0  
      4.202431  4.202431 11.717157            0           0           0  
      6.303646  0.000000  9.601215            0           0           0  
      0.000000  2.101215  9.601215            0           0           0  
      6.303646  2.101215  7.500000            0           0           0  
      0.000000  0.000000  7.500000            0           0           0  
      6.305808  0.000000 13.843242            0           0           0  
      0.000000  2.099054 13.843242            0           0           0  
      6.303966  2.100896 11.707456            0           0           0  
      0.000000  0.000000 11.706732            0           0           0  
      6.303646  4.202431  9.601215            0           0           0  
      0.000000  6.303646  9.601215            0           0           0  
      6.303646  6.303646  7.500000            0           0           0  
      0.000000  4.202431  7.500000            0           0           0  
      6.313015  4.202431 13.845585            0           0           0  
      0.000000  6.305808 13.843242            0           0           0  
      6.303966  6.303966 11.707456            0           0           0  
      0.000000  4.202431 11.706313            0           0           0  

 Finite differences POTIM=   3.5000000000000003E-002
     LOOP+:  cpu time   4343.6463: real time   4344.5130
    4ORBIT:  cpu time      0.0000: real time      0.0000

 total amount of memory used by VASP MPI-rank0   252250. kBytes
=======================================================================

   base      :      30000. kBytes
   nonl-proj :      17233. kBytes
   fftplans  :       7992. kBytes
   grid      :       8190. kBytes
   one-center:         73. kBytes
   HF        :        101. kBytes
   nonlr-proj:      60839. kBytes
   wavefun   :       6204. kBytes
   fock_wrk  :     121618. kBytes

  
  
 General timing and accounting informations for this job:
 ========================================================
  
                  Total CPU time used (sec):    64965.508
                            User time (sec):    64839.765
                          System time (sec):      125.741
                         Elapsed time (sec):    64993.470
  
                   Maximum memory used (kb):      453904.
                   Average memory used (kb):          N/A
  
                          Minor page faults:      2571423
                          Major page faults:           50
                 Voluntary context switches:        36622
