 vasp.6.3.0 20Jan22 (build Apr  1 2022 16:44:48) complex                         
 executed on        HPECrayEX_GCC date 2023.05.17  21:51:35
 running  512 mpi-ranks, with    1 threads/rank
 distrk:  each k-point on  512 cores,    1 groups
 distr:  one band on NCORE=   8 cores,   64 groups


--------------------------------------------------------------------------------------------------------


 INCAR:
   SYSTEM = MgO-rocksalt
   ISMEAR = 0
   SIGMA = 0.05
   EDIFF = 1E-6
   ALGO = ALL
   ISTART = 0
   IBRION = -1
   NSW = 0
   ISYM = 2
   ISIF = 2
   EDIFFG = -0.01
   DIPOL = 0.5 0.5 0.5
   IDIPOL = 3
   LDIPOL = .TRUE.
   LHFCALC = .TRUE.
   GGA = B5
   AEXX = 0.2
   AGGAX = 0.72
   AGGAC = 0.81
   ALDAC = 0.19
   IVDW = 1
   VDW_S6 = 1.05
   VDW_C6 = 1.75 0.70 0.63 0.70
   VDW_R0 = 1.452 1.342 1.243 1.342
   ENCUT = 600
   PREC = Normal
   LASPH = .TRUE.
   LREAL = .FALSE.
   ISPIN = 1
   NELM = 200
   NELMIN = 8
   NCORE = 8
   KPAR = 1
   LWAVE = .FALSE.
   LCHARG = .FALSE.

 POTCAR:    PAW_PBE C 08Apr2002                   
 POTCAR:    PAW_PBE O 08Apr2002                   
 POTCAR:    PAW_PBE Mg_pv 13Apr2007               
 POTCAR:    PAW_PBE O 08Apr2002                   
 -----------------------------------------------------------------------------
|                                                                             |
|           W    W    AA    RRRRR   N    N  II  N    N   GGGG   !!!           |
|           W    W   A  A   R    R  NN   N  II  NN   N  G    G  !!!           |
|           W    W  A    A  R    R  N N  N  II  N N  N  G       !!!           |
|           W WW W  AAAAAA  RRRRR   N  N N  II  N  N N  G  GGG   !            |
|           WW  WW  A    A  R   R   N   NN  II  N   NN  G    G                |
|           W    W  A    A  R    R  N    N  II  N    N   GGGG   !!!           |
|                                                                             |
|     You have selected ISYM=2 for a HF type calculation. This will           |
|     symmetrize the charge density but not the exchange potential. I         |
|     suggest to use ISYM=3 instead. This uses symmetry to obtain the         |
|     orbitals at all k-points in the Brillouin zone, but does not apply      |
|     symmetry to the Hartree potential directly. The resultant charge        |
|     might have lower symmetry than the crystal but, at least, Hartree       |
|     and exchange are fully compatible.                                      |
|                                                                             |
 -----------------------------------------------------------------------------

 POTCAR:    PAW_PBE C 08Apr2002                   
   SHA256 =  253f7b50bb8d59471dbedb8285d89021f4a42ed1a2c5d38a03a736e69125dd95 C/POTCAR              
   COPYR  = (c) Copyright 08Apr2002 Georg Kresse                                                    
   COPYR  = This file is part of the software VASP. Any use, copying, and all other rights are regul
   COPYR  = If you do not have a valid VASP license, you may not use, copy or distribute this file. 
   VRHFIN =C: s2p2                                                                                  
   LEXCH  = PE                                                                                      
   EATOM  =   147.1560 eV,   10.8157 Ry                                                             
                                                                                                    
   TITEL  = PAW_PBE C 08Apr2002                                                                     
   LULTRA =        F    use ultrasoft PP ?                                                          
   IUNSCR =        1    unscreen: 0-lin 1-nonlin 2-no                                               
   RPACOR =    1.200    partial core radius                                                         
   POMASS =   12.011; ZVAL   =    4.000    mass and valenz                                          
   RCORE  =    1.500    outmost cutoff radius                                                       
   RWIGS  =    1.630; RWIGS  =    0.863    wigner-seitz radius (au A)                               
   ENMAX  =  400.000; ENMIN  =  300.000 eV                                                          
   ICORE  =        2    local potential                                                             
   LCOR   =        T    correct aug charges                                                         
   LPAW   =        T    paw PP                                                                      
   EAUG   =  644.873                                                                                
   DEXC   =    0.000                                                                                
   RMAX   =    1.529    core radius for proj-oper                                                   
   RAUG   =    1.300    factor for augmentation sphere                                              
   RDEP   =    1.501    radius for radial grids                                                     
   RDEPT  =    1.300    core radius for aug-charge                                                  
                                                                                                    
   Atomic configuration                                                                             
    4 entries                                                                                       
     n  l   j            E        occ.                                                              
     1  0  0.50      -273.3789   2.0000                                                             
     2  0  0.50       -13.7508   2.0000                                                             
     2  1  0.50        -5.2854   2.0000                                                             
     3  2  1.50        -5.4423   0.0000                                                             
   Description                                                                                      
     l       E           TYP  RCUT    TYP  RCUT                                                     
     0    -13.7508458     23  1.200                                                                 
     0     -8.2022199     23  1.200                                                                 
     1     -5.2854383     23  1.500                                                                 
     1     34.0145650     23  1.500                                                                 
     2     -5.4423304      7  1.500                                                                 
  local pseudopotential read in
  partial core-charges read in
  partial kinetic energy density read in
  atomic valenz-charges read in
  non local Contribution for L=           0  read in
    real space projection operators read in
  non local Contribution for L=           0  read in
    real space projection operators read in
  non local Contribution for L=           1  read in
    real space projection operators read in
  non local Contribution for L=           1  read in
    real space projection operators read in
    PAW grid and wavefunctions read in

   number of l-projection  operators is LMAX  =           4
   number of lm-projection operators is LMMAX =           8

 POTCAR:    PAW_PBE O 08Apr2002                   
   SHA256 =  818f92134a0a090dccd8ba1447fa70422a3b330e708bb4f08108d8ae51209ddf O/POTCAR              
   COPYR  = (c) Copyright 08Apr2002 Georg Kresse                                                    
   COPYR  = This file is part of the software VASP. Any use, copying, and all other rights are regul
   COPYR  = If you do not have a valid VASP license, you may not use, copy or distribute this file. 
   VRHFIN =O: s2p4                                                                                  
   LEXCH  = PE                                                                                      
   EATOM  =   432.3788 eV,   31.7789 Ry                                                             
                                                                                                    
   TITEL  = PAW_PBE O 08Apr2002                                                                     
   LULTRA =        F    use ultrasoft PP ?                                                          
   IUNSCR =        1    unscreen: 0-lin 1-nonlin 2-no                                               
   RPACOR =    1.200    partial core radius                                                         
   POMASS =   16.000; ZVAL   =    6.000    mass and valenz                                          
   RCORE  =    1.520    outmost cutoff radius                                                       
   RWIGS  =    1.550; RWIGS  =    0.820    wigner-seitz radius (au A)                               
   ENMAX  =  400.000; ENMIN  =  300.000 eV                                                          
   ICORE  =        2    local potential                                                             
   LCOR   =        T    correct aug charges                                                         
   LPAW   =        T    paw PP                                                                      
   EAUG   =  605.392                                                                                
   DEXC   =    0.000                                                                                
   RMAX   =    1.553    core radius for proj-oper                                                   
   RAUG   =    1.300    factor for augmentation sphere                                              
   RDEP   =    1.550    radius for radial grids                                                     
   RDEPT  =    1.329    core radius for aug-charge                                                  
                                                                                                    
   Atomic configuration                                                                             
    4 entries                                                                                       
     n  l   j            E        occ.                                                              
     1  0  0.50      -514.6923   2.0000                                                             
     2  0  0.50       -23.9615   2.0000                                                             
     2  1  0.50        -9.0305   4.0000                                                             
     3  2  1.50        -9.5241   0.0000                                                             
   Description                                                                                      
     l       E           TYP  RCUT    TYP  RCUT                                                     
     0    -23.9615318     23  1.200                                                                 
     0     -9.5240782     23  1.200                                                                 
     1     -9.0304911     23  1.520                                                                 
     1      8.1634956     23  1.520                                                                 
     2     -9.5240782      7  1.500                                                                 
  local pseudopotential read in
  partial core-charges read in
  partial kinetic energy density read in
  kinetic energy density of atom read in
  atomic valenz-charges read in
  non local Contribution for L=           0  read in
    real space projection operators read in
  non local Contribution for L=           0  read in
    real space projection operators read in
  non local Contribution for L=           1  read in
    real space projection operators read in
  non local Contribution for L=           1  read in
    real space projection operators read in
    PAW grid and wavefunctions read in

   number of l-projection  operators is LMAX  =           4
   number of lm-projection operators is LMMAX =           8

 POTCAR:    PAW_PBE Mg_pv 13Apr2007               
   SHA256 =  f474ac0dd33840b9ae76c01d57fea79fdf77cdfbb07d5ade72c65f83c709b62b Mg_pv/POTCAR          
   COPYR  = (c) Copyright 13Apr2007 Georg Kresse                                                    
   COPYR  = This file is part of the software VASP. Any use, copying, and all other rights are regul
   COPYR  = If you do not have a valid VASP license, you may not use, copy or distribute this file. 
   VRHFIN =Mg: p6s2                                                                                 
   LEXCH  = PE                                                                                      
   EATOM  =  1056.7344 eV,   77.6678 Ry                                                             
                                                                                                    
   TITEL  = PAW_PBE Mg_pv 13Apr2007                                                                 
   LULTRA =        F    use ultrasoft PP ?                                                          
   IUNSCR =        1    unscreen: 0-lin 1-nonlin 2-no                                               
   RPACOR =    1.500    partial core radius                                                         
   POMASS =   24.305; ZVAL   =    8.000    mass and valenz                                          
   RCORE  =    2.000    outmost cutoff radius                                                       
   RWIGS  =    2.000; RWIGS  =    1.058    wigner-seitz radius (au A)                               
   ENMAX  =  403.929; ENMIN  =  302.947 eV                                                          
   RCLOC  =    1.506    cutoff for local pot                                                        
   LCOR   =        T    correct aug charges                                                         
   LPAW   =        T    paw PP                                                                      
   EAUG   =  758.780                                                                                
   DEXC   =    0.000                                                                                
   RMAX   =    2.045    core radius for proj-oper                                                   
   RAUG   =    1.300    factor for augmentation sphere                                              
   RDEP   =    2.025    radius for radial grids                                                     
   RDEPT  =    1.557    core radius for aug-charge                                                  
                                                                                                    
   Atomic configuration                                                                             
    5 entries                                                                                       
     n  l   j            E        occ.                                                              
     1  0  0.50     -1259.6230   2.0000                                                             
     2  0  0.50       -79.8442   2.0000                                                             
     2  1  1.50       -46.6121   6.0000                                                             
     3  0  0.50        -4.7055   2.0000                                                             
     3  2  1.50        -1.3606   0.0000                                                             
   Description                                                                                      
     l       E           TYP  RCUT    TYP  RCUT                                                     
     1    -46.6121073     23  1.600                                                                 
     1      2.7211652     23  1.600                                                                 
     0     -4.7054661     23  2.000                                                                 
     0     61.2262170     23  2.000                                                                 
     2     -1.3605826     23  2.000                                                                 
  local pseudopotential read in
  partial core-charges read in
  partial kinetic energy density read in
  atomic valenz-charges read in
  non local Contribution for L=           1  read in
    real space projection operators read in
  non local Contribution for L=           1  read in
    real space projection operators read in
  non local Contribution for L=           0  read in
    real space projection operators read in
  non local Contribution for L=           0  read in
    real space projection operators read in
  non local Contribution for L=           2  read in
    real space projection operators read in
    PAW grid and wavefunctions read in

   number of l-projection  operators is LMAX  =           5
   number of lm-projection operators is LMMAX =          13

 POTCAR:    PAW_PBE O 08Apr2002                   
   SHA256 =  818f92134a0a090dccd8ba1447fa70422a3b330e708bb4f08108d8ae51209ddf O/POTCAR              
   COPYR  = (c) Copyright 08Apr2002 Georg Kresse                                                    
   COPYR  = This file is part of the software VASP. Any use, copying, and all other rights are regul
   COPYR  = If you do not have a valid VASP license, you may not use, copy or distribute this file. 
   VRHFIN =O: s2p4                                                                                  
   LEXCH  = PE                                                                                      
   EATOM  =   432.3788 eV,   31.7789 Ry                                                             
                                                                                                    
   TITEL  = PAW_PBE O 08Apr2002                                                                     
   LULTRA =        F    use ultrasoft PP ?                                                          
   IUNSCR =        1    unscreen: 0-lin 1-nonlin 2-no                                               
   RPACOR =    1.200    partial core radius                                                         
   POMASS =   16.000; ZVAL   =    6.000    mass and valenz                                          
   RCORE  =    1.520    outmost cutoff radius                                                       
   RWIGS  =    1.550; RWIGS  =    0.820    wigner-seitz radius (au A)                               
   ENMAX  =  400.000; ENMIN  =  300.000 eV                                                          
   ICORE  =        2    local potential                                                             
   LCOR   =        T    correct aug charges                                                         
   LPAW   =        T    paw PP                                                                      
   EAUG   =  605.392                                                                                
   DEXC   =    0.000                                                                                
   RMAX   =    1.553    core radius for proj-oper                                                   
   RAUG   =    1.300    factor for augmentation sphere                                              
   RDEP   =    1.550    radius for radial grids                                                     
   RDEPT  =    1.329    core radius for aug-charge                                                  
                                                                                                    
   Atomic configuration                                                                             
    4 entries                                                                                       
     n  l   j            E        occ.                                                              
     1  0  0.50      -514.6923   2.0000                                                             
     2  0  0.50       -23.9615   2.0000                                                             
     2  1  0.50        -9.0305   4.0000                                                             
     3  2  1.50        -9.5241   0.0000                                                             
   Description                                                                                      
     l       E           TYP  RCUT    TYP  RCUT                                                     
     0    -23.9615318     23  1.200                                                                 
     0     -9.5240782     23  1.200                                                                 
     1     -9.0304911     23  1.520                                                                 
     1      8.1634956     23  1.520                                                                 
     2     -9.5240782      7  1.500                                                                 
  local pseudopotential read in
  partial core-charges read in
  partial kinetic energy density read in
  kinetic energy density of atom read in
  atomic valenz-charges read in
  non local Contribution for L=           0  read in
    real space projection operators read in
  non local Contribution for L=           0  read in
    real space projection operators read in
  non local Contribution for L=           1  read in
    real space projection operators read in
  non local Contribution for L=           1  read in
    real space projection operators read in
    PAW grid and wavefunctions read in

   number of l-projection  operators is LMAX  =           4
   number of lm-projection operators is LMMAX =           8

 -----------------------------------------------------------------------------
|                                                                             |
|               ----> ADVICE to this user running VASP <----                  |
|                                                                             |
|     You have a (more or less) 'large supercell' and for larger cells it     |
|     might be more efficient to use real-space projection operators.         |
|     Therefore, try LREAL= Auto in the INCAR file.                           |
|     Mind: For very accurate calculation, you might also keep the            |
|     reciprocal projection scheme (i.e. LREAL=.FALSE.).                      |
|                                                                             |
 -----------------------------------------------------------------------------

 -----------------------------------------------------------------------------
|                                                                             |
|               ----> ADVICE to this user running VASP <----                  |
|                                                                             |
|     You enforced a specific xc type in the INCAR file but a different       |
|     type was found in the POTCAR file.                                      |
|     I HOPE YOU KNOW WHAT YOU ARE DOING!                                     |
|                                                                             |
 -----------------------------------------------------------------------------

  PAW_PBE C 08Apr2002                   :
 energy of atom  1       EATOM= -147.1560
 kinetic energy error for atom=    0.0057 (will be added to EATOM!!)
  PAW_PBE O 08Apr2002                   :
 energy of atom  2       EATOM= -432.3788
 kinetic energy error for atom=    0.0168 (will be added to EATOM!!)
  PAW_PBE Mg_pv 13Apr2007               :
 energy of atom  3       EATOM=-1056.7344
 kinetic energy error for atom=    0.0221 (will be added to EATOM!!)
  PAW_PBE O 08Apr2002                   :
 energy of atom  4       EATOM= -432.3788
 kinetic energy error for atom=    0.0168 (will be added to EATOM!!)


 POSCAR:  C  O Mg  O
  positions in direct lattice
  No initial velocities read in
 exchange correlation table for  LEXCH =       12
   RHO(1)=    0.500       N(1)  =     2000
   RHO(2)=  100.500       N(2)  =     4000



--------------------------------------------------------------------------------------------------------


 ion  position               nearest neighbor table
   1  0.500  0.500  0.771-   2 1.15
   2  0.500  0.500  0.825-   1 1.15
   3  0.000  0.750  0.352-  35 2.11  37 2.11  38 2.11  45 2.11  54 2.11
   4  0.250  0.000  0.352-  36 2.11  37 2.11  38 2.11  46 2.11  53 2.11
   5  0.000  0.000  0.451-  37 2.11  36 2.11  35 2.11  43 2.11  52 2.11  41 2.12
   6  0.250  0.750  0.451-  38 2.11  36 2.11  35 2.11  44 2.11  51 2.11  42 2.12
   7  0.000  0.750  0.550-  49 2.11  42 2.11  58 2.11  41 2.11  35 2.12  39 2.15
   8  0.250  0.000  0.550-  57 2.11  50 2.11  42 2.11  41 2.11  36 2.12  40 2.15
   9  0.000  0.000  0.649-  39 2.11  40 2.11  47 2.11  56 2.11  41 2.11
  10  0.250  0.750  0.649-  42 2.11  40 2.11  39 2.11  48 2.11  55 2.11
  11  0.000  0.250  0.352-  43 2.11  37 2.11  45 2.11  46 2.11  62 2.11
  12  0.250  0.500  0.352-  44 2.11  38 2.11  45 2.11  46 2.11  61 2.11
  13  0.000  0.500  0.451-  45 2.11  43 2.11  44 2.11  35 2.11  60 2.11  49 2.12
  14  0.250  0.250  0.451-  46 2.11  43 2.11  44 2.11  36 2.11  59 2.11  50 2.12
  15  0.000  0.250  0.550-  49 2.11  50 2.11  66 2.11  41 2.11  43 2.12  47 2.15
  16  0.250  0.500  0.550-  65 2.11  50 2.11  42 2.11  49 2.11  44 2.13  48 2.15
  17  0.000  0.500  0.649-  48 2.10  64 2.10  49 2.11  47 2.11  39 2.11
  18  0.250  0.250  0.649-  50 2.11  47 2.11  40 2.11  48 2.11  63 2.11
  19  0.500  0.750  0.352-  51 2.11  38 2.11  53 2.11  54 2.11  61 2.11
  20  0.750  0.000  0.352-  52 2.11  37 2.11  53 2.11  54 2.11  62 2.11
  21  0.500  0.000  0.451-  53 2.11  51 2.11  52 2.11  36 2.11  59 2.11  57 2.12
  22  0.750  0.750  0.451-  54 2.11  51 2.11  52 2.11  35 2.11  60 2.11  58 2.12
  23  0.500  0.750  0.550-  65 2.11  58 2.11  42 2.11  57 2.11  51 2.13  55 2.15
  24  0.750  0.000  0.550-  57 2.11  58 2.11  66 2.11  41 2.11  52 2.12  56 2.15
  25  0.500  0.000  0.649-  55 2.10  63 2.10  57 2.11  40 2.11  56 2.11
  26  0.750  0.750  0.649-  58 2.11  56 2.11  39 2.11  55 2.11  64 2.11
  27  0.500  0.250  0.352-  59 2.11  53 2.11  46 2.11  61 2.11  62 2.11
  28  0.750  0.500  0.352-  60 2.11  54 2.11  45 2.11  61 2.11  62 2.11
  29  0.500  0.500  0.451-  61 2.11  51 2.11  59 2.11  60 2.11  44 2.11  65 2.13
  30  0.750  0.250  0.451-  62 2.11  52 2.11  59 2.11  60 2.11  43 2.11  66 2.12
  31  0.500  0.250  0.550-  65 2.11  50 2.11  66 2.11  57 2.11  59 2.13  63 2.15
  32  0.750  0.500  0.550-  65 2.11  58 2.11  66 2.11  49 2.11  60 2.13  64 2.15
  33  0.500  0.500  0.651-  48 2.12  55 2.12  63 2.12  64 2.12  65 2.14
  34  0.750  0.250  0.649-  66 2.11  56 2.11  47 2.11  64 2.11  63 2.11
  35  0.000  0.750  0.451-   3 2.11   5 2.11   6 2.11  13 2.11  22 2.11   7 2.12
  36  0.250  0.000  0.451-   4 2.11   5 2.11   6 2.11  14 2.11  21 2.11   8 2.12
  37  0.000  0.000  0.352-   5 2.11   4 2.11   3 2.11  11 2.11  20 2.11
  38  0.250  0.750  0.352-   6 2.11   4 2.11   3 2.11  12 2.11  19 2.11
  39  0.000  0.750  0.651-   9 2.11  10 2.11  26 2.11  17 2.11   7 2.15
  40  0.250  0.000  0.651-   9 2.11  10 2.11  18 2.11  25 2.11   8 2.15
  41  0.000  0.000  0.550-   9 2.11   8 2.11   7 2.11  15 2.11  24 2.11   5 2.12
  42  0.250  0.750  0.550-  10 2.11   8 2.11   7 2.11  16 2.11  23 2.11   6 2.12
  43  0.000  0.250  0.451-  11 2.11   5 2.11  13 2.11  14 2.11  30 2.11  15 2.12
  44  0.250  0.500  0.451-  12 2.11   6 2.11  13 2.11  14 2.11  29 2.11  16 2.13
  45  0.000  0.500  0.352-  13 2.11  11 2.11  12 2.11   3 2.11  28 2.11
  46  0.250  0.250  0.352-  14 2.11  11 2.11  12 2.11   4 2.11  27 2.11
  47  0.000  0.250  0.651-   9 2.11  18 2.11  34 2.11  17 2.11  15 2.15
  48  0.249  0.500  0.651-  17 2.10  10 2.11  18 2.11  33 2.12  16 2.15
  49  0.000  0.500  0.550-  17 2.11  15 2.11   7 2.11  16 2.11  32 2.11  13 2.12
  50  0.250  0.250  0.550-  18 2.11  15 2.11   8 2.11  16 2.11  31 2.11  14 2.12
  51  0.500  0.750  0.451-  19 2.11   6 2.11  21 2.11  22 2.11  29 2.11  23 2.13
  52  0.750  0.000  0.451-  20 2.11   5 2.11  21 2.11  22 2.11  30 2.11  24 2.12
  53  0.500  0.000  0.352-  21 2.11  19 2.11  20 2.11   4 2.11  27 2.11
  54  0.750  0.750  0.352-  22 2.11  19 2.11  20 2.11   3 2.11  28 2.11
  55  0.500  0.751  0.651-  25 2.10  10 2.11  26 2.11  33 2.12  23 2.15
  56  0.750  0.000  0.651-   9 2.11  26 2.11  34 2.11  25 2.11  24 2.15
  57  0.500  0.000  0.550-  25 2.11  24 2.11   8 2.11  23 2.11  31 2.11  21 2.12
  58  0.750  0.750  0.550-  26 2.11  24 2.11   7 2.11  32 2.11  23 2.11  22 2.12
  59  0.500  0.250  0.451-  27 2.11  21 2.11  14 2.11  29 2.11  30 2.11  31 2.13
  60  0.750  0.500  0.451-  28 2.11  22 2.11  13 2.11  29 2.11  30 2.11  32 2.13
  61  0.500  0.500  0.352-  29 2.11  19 2.11  27 2.11  28 2.11  12 2.11
  62  0.750  0.250  0.352-  30 2.11  20 2.11  27 2.11  28 2.11  11 2.11
  63  0.500  0.249  0.651-  25 2.10  18 2.11  34 2.11  33 2.12  31 2.15
  64  0.751  0.500  0.651-  17 2.10  26 2.11  34 2.11  33 2.12  32 2.15
  65  0.500  0.500  0.550-  16 2.11  23 2.11  31 2.11  32 2.11  29 2.13  33 2.14
  66  0.750  0.250  0.550-  34 2.11  24 2.11  15 2.11  32 2.11  31 2.11  30 2.12

  LATTYP: Found a simple tetragonal cell.
 ALAT       =     8.4409846542
 C/A-ratio  =     2.5270438657
  
  Lattice vectors:
  
 A1 = (   8.4409846542,   0.0000000000,   0.0000000000)
 A2 = (   0.0000000000,   8.4409846542,   0.0000000000)
 A3 = (   0.0000000000,   0.0000000000,  21.3307384906)


Analysis of symmetry for initial positions (statically):
=====================================================================
 Subroutine PRICEL returns:
 Original cell was already a primitive cell.
 

 Routine SETGRP: Setting up the symmetry group for a 
 simple tetragonal supercell.


 Subroutine GETGRP returns: Found  8 space group operations
 (whereof  8 operations were pure point group operations)
 out of a pool of 16 trial point group operations.


The static configuration has the point symmetry C_4v.


Analysis of symmetry for dynamics (positions and initial velocities):
=====================================================================
 Subroutine PRICEL returns:
 Original cell was already a primitive cell.
 

 Routine SETGRP: Setting up the symmetry group for a 
 simple tetragonal supercell.


 Subroutine GETGRP returns: Found  8 space group operations
 (whereof  8 operations were pure point group operations)
 out of a pool of 16 trial point group operations.


The dynamic configuration has the point symmetry C_4v.


 Subroutine INISYM returns: Found  8 space group operations
 (whereof  8 operations are pure point group operations),
 and found     1 'primitive' translations


----------------------------------------------------------------------------------------

                                     Primitive cell                                     

  volume of cell :    1519.8199

  direct lattice vectors                    reciprocal lattice vectors
     8.440984654  0.000000000  0.000000000     0.118469591  0.000000000  0.000000000
     0.000000000  8.440984654  0.000000000     0.000000000  0.118469591  0.000000000
     0.000000000  0.000000000 21.330738491     0.000000000  0.000000000  0.046880702

  length of vectors
     8.440984654  8.440984654 21.330738491     0.118469591  0.118469591  0.046880702

  position of ions in fractional coordinates (direct lattice)
     0.500000000  0.500000000  0.771100365
     0.500000000  0.500000000  0.824864083
     0.000000000  0.750000000  0.351605267
     0.250000000  0.000000000  0.351605267
     0.000000000  0.000000000  0.450535089
     0.250000000  0.750000000  0.450535089
     0.000000000  0.749939268  0.550083239
     0.250060732  0.000000000  0.550083239
     0.000000000  0.000000000  0.648745309
     0.249858327  0.750141673  0.648569547
     0.000000000  0.250000000  0.351605267
     0.250000000  0.500000000  0.351605267
     0.000000000  0.500000000  0.450535089
     0.250000000  0.250000000  0.450535089
     0.000000000  0.250060732  0.550083239
     0.250378379  0.500000000  0.550219524
     0.000000000  0.500000000  0.648615280
     0.249858327  0.249858327  0.648569547
     0.500000000  0.750000000  0.351605267
     0.750000000  0.000000000  0.351605267
     0.500000000  0.000000000  0.450535089
     0.750000000  0.750000000  0.450535089
     0.500000000  0.749621621  0.550219524
     0.749939268  0.000000000  0.550083239
     0.500000000  0.000000000  0.648615280
     0.750141673  0.750141673  0.648569547
     0.500000000  0.250000000  0.351605267
     0.750000000  0.500000000  0.351605267
     0.500000000  0.500000000  0.450535089
     0.750000000  0.250000000  0.450535089
     0.500000000  0.250378379  0.550219524
     0.749621621  0.500000000  0.550219524
     0.500000000  0.500000000  0.650616960
     0.750141673  0.249858327  0.648569547
     0.000000000  0.750000000  0.450535089
     0.250000000  0.000000000  0.450535089
     0.000000000  0.000000000  0.351605267
     0.250000000  0.750000000  0.351605267
     0.000000000  0.750218533  0.650979255
     0.249781467  0.000000000  0.650979255
     0.000000000  0.000000000  0.549809890
     0.249945770  0.750054230  0.549859113
     0.000000000  0.250000000  0.450535089
     0.250000000  0.500000000  0.450535089
     0.000000000  0.500000000  0.351605267
     0.250000000  0.250000000  0.351605267
     0.000000000  0.249781467  0.650979255
     0.248822710  0.500000000  0.650882872
     0.000000000  0.500000000  0.549762666
     0.249945770  0.249945770  0.549859113
     0.500000000  0.750000000  0.450535089
     0.750000000  0.000000000  0.450535089
     0.500000000  0.000000000  0.351605267
     0.750000000  0.750000000  0.351605267
     0.500000000  0.751177290  0.650882872
     0.750218533  0.000000000  0.650979255
     0.500000000  0.000000000  0.549762666
     0.750054230  0.750054230  0.549859113
     0.500000000  0.250000000  0.450535089
     0.750000000  0.500000000  0.450535089
     0.500000000  0.500000000  0.351605267
     0.750000000  0.250000000  0.351605267
     0.500000000  0.248822710  0.650882872
     0.751177290  0.500000000  0.650882872
     0.500000000  0.500000000  0.550231357
     0.750054230  0.249945770  0.549859113

  ion indices of the primitive-cell ions
   primitive index   ion index
                 1           1
                 2           2
                 3           3
                 4           4
                 5           5
                 6           6
                 7           7
                 8           8
                 9           9
                10          10
                11          11
                12          12
                13          13
                14          14
                15          15
                16          16
                17          17
                18          18
                19          19
                20          20
                21          21
                22          22
                23          23
                24          24
                25          25
                26          26
                27          27
                28          28
                29          29
                30          30
                31          31
                32          32
                33          33
                34          34
                35          35
                36          36
                37          37
                38          38
                39          39
                40          40
                41          41
                42          42
                43          43
                44          44
                45          45
                46          46
                47          47
                48          48
                49          49
                50          50
                51          51
                52          52
                53          53
                54          54
                55          55
                56          56
                57          57
                58          58
                59          59
                60          60
                61          61
                62          62
                63          63
                64          64
                65          65
                66          66

----------------------------------------------------------------------------------------



 KPOINTS: pymatgen v2020.8.13 with grid density = 

Automatic generation of k-mesh.
 Grid dimensions read from file:
 generate k-points for:    2    2    1

 Generating k-lattice:

  Cartesian coordinates                     Fractional coordinates (reciprocal lattice)
     0.059234796  0.000000000  0.000000000     0.500000000  0.000000000  0.000000000
     0.000000000  0.059234796  0.000000000     0.000000000  0.500000000  0.000000000
     0.000000000  0.000000000  0.046880702     0.000000000  0.000000000  1.000000000

  Length of vectors
     0.059234796  0.059234796  0.046880702

  Shift w.r.t. Gamma in fractional coordinates (k-lattice)
     0.000000000  0.000000000  0.000000000

 
 Subroutine IBZKPT returns following result:
 ===========================================
 
 Found      3 irreducible k-points:
 
 Following reciprocal coordinates:
            Coordinates               Weight
  0.000000  0.000000  0.000000      1.000000
  0.500000  0.000000  0.000000      2.000000
  0.500000  0.500000  0.000000      1.000000
 
 Following cartesian coordinates:
            Coordinates               Weight
  0.000000  0.000000  0.000000      1.000000
  0.059235  0.000000  0.000000      2.000000
  0.059235  0.059235  0.000000      1.000000
 
 
 Subroutine IBZKPT_HF returns following result:
 ==============================================
 
 Found      4 k-points in 1st BZ
 the following      4 k-points will be used (e.g. in the exchange kernel)
 Following reciprocal coordinates:   # in IRBZ
  0.000000  0.000000  0.000000    0.25000000   1 t-inv F
  0.500000  0.000000  0.000000    0.25000000   2 t-inv F
  0.500000  0.500000  0.000000    0.25000000   3 t-inv F
 -0.000000  0.500000  0.000000    0.25000000   2 t-inv F


--------------------------------------------------------------------------------------------------------




 Dimension of arrays:
   k-points           NKPTS =      3   k-points in BZ     NKDIM =      4   number of bands    NBANDS=    320
   number of dos      NEDOS =    301   number of ions     NIONS =     66
   non local maximal  LDIM  =      5   non local SUM 2l+1 LMDIM =     13
   total plane-waves  NPLWV = 373248
   max r-space proj   IRMAX =      1   max aug-charges    IRDMAX=   5039
   dimension x,y,z NGX =    54 NGY =   54 NGZ =  128
   dimension x,y,z NGXF=   108 NGYF=  108 NGZF=  256
   support grid    NGXF=   108 NGYF=  108 NGZF=  256
   ions per type =               1   1  32  32
   NGX,Y,Z   is equivalent  to a cutoff of  10.64, 10.64,  9.98 a.u.
   NGXF,Y,Z  is equivalent  to a cutoff of  21.27, 21.27, 19.95 a.u.

 SYSTEM =  MgO-rocksalt                            
 POSCAR =   C  O Mg  O                             

 Startparameter for this run:
   NWRITE =      2    write-flag & timer
   PREC   = normal    normal or accurate (medium, high low for compatibility)
   ISTART =      0    job   : 0-new  1-cont  2-samecut
   ICHARG =      2    charge: 1-file 2-atom 10-const
   ISPIN  =      1    spin polarized calculation?
   LNONCOLLINEAR =      F non collinear calculations
   LSORBIT =      F    spin-orbit coupling
   INIWAV =      1    electr: 0-lowe 1-rand  2-diag
   LASPH  =      T    aspherical Exc in radial PAW
 Electronic Relaxation 1
   ENCUT  =  600.0 eV  44.10 Ry    6.64 a.u.  16.86 16.86 42.60*2*pi/ulx,y,z
   ENINI  =  600.0     initial cutoff
   ENAUG  =  758.8 eV  augmentation charge cutoff
   NELM   =    200;   NELMIN=  8; NELMDL= -5     # of ELM steps 
   EDIFF  = 0.1E-05   stopping-criterion for ELM
   LREAL  =      F    real-space projection
   NLSPLINE    = F    spline interpolate recip. space projectors
   LCOMPAT=      F    compatible to vasp.4.4
   GGA_COMPAT  = T    GGA compatible to vasp.4.4-vasp.4.6
   LMAXPAW     = -100 max onsite density
   LMAXMIX     =    2 max onsite mixed and CHGCAR
   VOSKOWN=      0    Vosko Wilk Nusair interpolation
   ROPT   =    0.00000   0.00000   0.00000   0.00000
 Ionic relaxation
   EDIFFG = -.1E-01   stopping-criterion for IOM
   NSW    =      0    number of steps for IOM
   NBLOCK =      1;   KBLOCK =      1    inner block; outer block 
   IBRION =     -1    ionic relax: 0-MD 1-quasi-New 2-CG
   NFREE  =      0    steps in history (QN), initial steepest desc. (CG)
   ISIF   =      2    stress and relaxation
   IWAVPR =     10    prediction:  0-non 1-charg 2-wave 3-comb
   ISYM   =      2    0-nonsym 1-usesym 2-fastsym
   LCORR  =      T    Harris-Foulkes like correction to forces

   POTIM  = 0.5000    time-step for ionic-motion
   TEIN   =    0.0    initial temperature
   TEBEG  =    0.0;   TEEND  =   0.0 temperature during run
   SMASS  =  -3.00    Nose mass-parameter (am)
   estimated Nose-frequenzy (Omega)   =  0.10E-29 period in steps = 0.13E+47 mass=  -0.163E-26a.u.
   SCALEE = 1.0000    scale energy and forces
   NPACO  =    256;   APACO  = 10.0  distance and # of slots for P.C.
   PSTRESS=    0.0 pullay stress

  Mass of Ions in am
   POMASS =  12.01 16.00 24.30 16.00
  Ionic Valenz
   ZVAL   =   4.00  6.00  8.00  6.00
  Atomic Wigner-Seitz radii
   RWIGS  =  -1.00 -1.00 -1.00 -1.00
  virtual crystal weights 
   VCA    =   1.00  1.00  1.00  1.00
   NELECT =     458.0000    total number of electrons
   NUPDOWN=      -1.0000    fix difference up-down

 DOS related values:
   EMIN   =  10.00;   EMAX   =-10.00  energy-range for DOS
   EFERMI =   0.00
   ISMEAR =     0;   SIGMA  =   0.05  broadening in eV -4-tet -1-fermi 0-gaus

 Electronic relaxation 2 (details)
   IALGO  =     58    algorithm
   LDIAG  =      T    sub-space diagonalisation (order eigenvalues)
   LSUBROT=      F    optimize rotation matrix (better conditioning)
   TURBO    =      0    0=normal 1=particle mesh
   IRESTART =      0    0=no restart 2=restart with 2 vectors
   NREBOOT  =      0    no. of reboots
   NMIN     =      0    reboot dimension
   EREF     =   0.00    reference energy to select bands
   IMIX   =      4    mixing-type and parameters
     AMIX     =   0.40;   BMIX     =  1.00
     AMIX_MAG =   1.60;   BMIX_MAG =  1.00
     AMIN     =   0.10
     WC   =   100.;   INIMIX=   1;  MIXPRE=   1;  MAXMIX= -45

 Intra band minimization:
   WEIMIN = 0.0000     energy-eigenvalue tresh-hold
   EBREAK =  0.78E-09  absolut break condition
   DEPER  =   0.30     relativ break condition  

   TIME   =   0.40     timestep for ELM

  volume/ion in A,a.u.               =      23.03       155.40
  Fermi-wavevector in a.u.,A,eV,Ry     =   1.097571  2.074108 16.390423  1.204662
  Thomas-Fermi vector in A             =   2.233933

 Write flags
   LWAVE        =      F    write WAVECAR
   LDOWNSAMPLE  =      F    k-point downsampling of WAVECAR
   LCHARG       =      F    write CHGCAR
   LVTOT        =      F    write LOCPOT, total local potential
   LVHAR        =      F    write LOCPOT, Hartree potential only
   LELF         =      F    write electronic localiz. function (ELF)
   LORBIT       =      0    0 simple, 1 ext, 2 COOP (PROOUT), +10 PAW based schemes


 Dipole corrections
   LMONO  =      F    monopole corrections only (constant potential shift)
   LDIPOL =      T    correct potential (dipole corrections)
   IDIPOL =      3    1-x, 2-y, 3-z, 4-all directions 
   EPSILON=  1.0000000 bulk dielectric constant

 Exchange correlation treatment:
   GGA     =    B5    GGA type
   LEXCH   =    12    internal setting for exchange type
   LIBXC   =     F    Libxc                    
   VOSKOWN =     0    Vosko Wilk Nusair interpolation
   EXXOEP  =     0    0=HF, 1=EXX-LHF (local Hartree Fock) 2=EXX OEP
   LHFCALC =     T    Hartree Fock is set to
   LSYMGRAD=     F    symmetrize gradient (conserves proper symmetry)
   PRECFOCK=normal    Normal, Fast or Accurate (Low or Medium for compatibility)
   LRHFCALC=     F    long range Hartree Fock
   LRSCOR  =     F    long range correlation only (use DFT for short range part)
   LTHOMAS =     F    Thomas Fermi screening in HF
   LMODELHF=     F    short range full HF, long range fraction AEXX
   LFOCKACE=     T    use Adeptively-Compressed-Exchange operator
   ENCUT4O =  -1.0   cutoff for four orbital integrals eV
   LMAXFOCK=     4    L truncation for augmentation on plane wave grid
   LMAXFOCKAE=  -1    L truncation for all-electron charge restoration on plane wave grid
   NMAXFOCKAE=   1    number of basis functions for all-electron charge restoration
   LFOCKAEDFT=     F  apply the AE augmentation even for DFT
   NKREDX  =     1    reduce k-point grid by
   NKREDY  =     1    reduce k-point grid by
   NKREDZ  =     1    reduce k-point grid by
   SHIFTRED=     F    shift reduced grid of Gamma
   HFKIDENT=     F    idential grid for each k-point
   ODDONLY =     F    use only odd q-grid points
   EVENONLY=     F    use only even q-grid points
   HFALPHA =   -1.0000 decay constant for conv. correction
   MCALPHA =    0.0000 extent of test-charge in conv. correction in multipole expansion
   AEXX    =    0.2000 exact exchange contribution
   HFSCREEN=    0.0000 screening length (either q_TF or 0.3 A-1)
   HFSCREENC=   0.0000 screening length for correlation (either q_TF or 0.3 A-1)
   HFRCUT  =    0.0000 spherical cutoff for potential kernel
   ALDAX   =    0.8000 LDA exchange part
   AGGAX   =    0.7200 GGA exchange part
   ALDAC   =    0.1900 LDA correlation
   AGGAC   =    0.8100 GGA correlation
   ENCUTFOCK=  -1.0 apply spherical cutoff to Coloumb kernel
   NBANDSGWLOW=     1    first orbital included in HF term
   NBLOCK_FOCK=    64    blocking factor in FOCK_ACC

 Linear response parameters
   LEPSILON=     F    determine dielectric tensor
   LRPA    =     F    only Hartree local field effects (RPA)
   LNABLA  =     F    use nabla operator in PAW spheres
   LVEL    =     F    velocity operator in full k-point grid
   CSHIFT  =0.1000    complex shift for real part using Kramers Kronig
   OMEGAMAX=  -1.0    maximum frequency
   DEG_THRESHOLD= 0.2000000E-02 threshold for treating states as degnerate
   RTIME   =   -0.100 relaxation time in fs
  (WPLASMAI=    0.000 imaginary part of plasma frequency in eV, 0.658/RTIME)
   DFIELD  = 0.0000000 0.0000000 0.0000000 field for delta impulse in time

  Optional k-point grid parameters
   LKPOINTS_OPT  =     F    use optional k-point grid
   KPOINTS_OPT_MODE=     1    mode for optional k-point grid

 Orbital magnetization related:
   ORBITALMAG=     F  switch on orbital magnetization
   LCHIMAG   =     F  perturbation theory with respect to B field
   DQ        =  0.001000  dq finite difference perturbation B field
   LLRAUG    =     F  two centre corrections for induced B field



--------------------------------------------------------------------------------------------------------


 Static calculation
 charge density and potential will be updated during run
 non-spin polarized calculation
 Conjugate gradient for all bands (Freysoldt, et al. PRB 79, 241103 (2009))
 preconditioned conjugated gradient                                        
 perform sub-space diagonalisation
    before iterative eigenvector-optimisation
 modified Broyden-mixing scheme, WC =      100.0
 initial mixing is a Kerker type mixing with AMIX =  0.4000 and BMIX =      1.0000
 Hartree-type preconditioning will be used
 using additional bands           91
 reciprocal scheme for non local part
 use partial core corrections
 no Harris-corrections to forces 
 use gradient corrections 
 use of overlap-Matrix (Vanderbilt PP)
 Gauss-broadening in eV      SIGMA  =   0.05


--------------------------------------------------------------------------------------------------------


  energy-cutoff  :      600.00
  volume of cell :     1519.82
      direct lattice vectors                 reciprocal lattice vectors
     8.440984654  0.000000000  0.000000000     0.118469591  0.000000000  0.000000000
     0.000000000  8.440984654  0.000000000     0.000000000  0.118469591  0.000000000
     0.000000000  0.000000000 21.330738491     0.000000000  0.000000000  0.046880702

  length of vectors
     8.440984654  8.440984654 21.330738491     0.118469591  0.118469591  0.046880702



 k-points in units of 2pi/SCALE and weight: pymatgen v2020.8.13 with grid density = 
   0.00000000  0.00000000  0.00000000       0.250
   0.05923480  0.00000000  0.00000000       0.500
   0.05923480  0.05923480  0.00000000       0.250

 k-points in reciprocal lattice and weights: pymatgen v2020.8.13 with grid density = 
   0.00000000  0.00000000  0.00000000       0.250
   0.50000000  0.00000000  0.00000000       0.500
   0.50000000  0.50000000  0.00000000       0.250

 position of ions in fractional coordinates (direct lattice) 
   0.50000000  0.50000000  0.77110036
   0.50000000  0.50000000  0.82486408
   0.00000000  0.75000000  0.35160527
   0.25000000  0.00000000  0.35160527
   0.00000000  0.00000000  0.45053509
   0.25000000  0.75000000  0.45053509
   0.00000000  0.74993927  0.55008324
   0.25006073  0.00000000  0.55008324
   0.00000000  0.00000000  0.64874531
   0.24985833  0.75014167  0.64856955
   0.00000000  0.25000000  0.35160527
   0.25000000  0.50000000  0.35160527
   0.00000000  0.50000000  0.45053509
   0.25000000  0.25000000  0.45053509
   0.00000000  0.25006073  0.55008324
   0.25037838  0.50000000  0.55021952
   0.00000000  0.50000000  0.64861528
   0.24985833  0.24985833  0.64856955
   0.50000000  0.75000000  0.35160527
   0.75000000  0.00000000  0.35160527
   0.50000000  0.00000000  0.45053509
   0.75000000  0.75000000  0.45053509
   0.50000000  0.74962162  0.55021952
   0.74993927  0.00000000  0.55008324
   0.50000000  0.00000000  0.64861528
   0.75014167  0.75014167  0.64856955
   0.50000000  0.25000000  0.35160527
   0.75000000  0.50000000  0.35160527
   0.50000000  0.50000000  0.45053509
   0.75000000  0.25000000  0.45053509
   0.50000000  0.25037838  0.55021952
   0.74962162  0.50000000  0.55021952
   0.50000000  0.50000000  0.65061696
   0.75014167  0.24985833  0.64856955
   0.00000000  0.75000000  0.45053509
   0.25000000  0.00000000  0.45053509
   0.00000000  0.00000000  0.35160527
   0.25000000  0.75000000  0.35160527
   0.00000000  0.75021853  0.65097926
   0.24978147  0.00000000  0.65097926
   0.00000000  0.00000000  0.54980989
   0.24994577  0.75005423  0.54985911
   0.00000000  0.25000000  0.45053509
   0.25000000  0.50000000  0.45053509
   0.00000000  0.50000000  0.35160527
   0.25000000  0.25000000  0.35160527
   0.00000000  0.24978147  0.65097926
   0.24882271  0.50000000  0.65088287
   0.00000000  0.50000000  0.54976267
   0.24994577  0.24994577  0.54985911
   0.50000000  0.75000000  0.45053509
   0.75000000  0.00000000  0.45053509
   0.50000000  0.00000000  0.35160527
   0.75000000  0.75000000  0.35160527
   0.50000000  0.75117729  0.65088287
   0.75021853  0.00000000  0.65097926
   0.50000000  0.00000000  0.54976267
   0.75005423  0.75005423  0.54985911
   0.50000000  0.25000000  0.45053509
   0.75000000  0.50000000  0.45053509
   0.50000000  0.50000000  0.35160527
   0.75000000  0.25000000  0.35160527
   0.50000000  0.24882271  0.65088287
   0.75117729  0.50000000  0.65088287
   0.50000000  0.50000000  0.55023136
   0.75005423  0.24994577  0.54985911

 position of ions in cartesian coordinates  (Angst):
   4.22049233  4.22049233 16.44814023
   4.22049233  4.22049233 17.59496005
   0.00000000  6.33073849  7.50000000
   2.11024616  0.00000000  7.50000000
   0.00000000  0.00000000  9.61024616
   2.11024616  6.33073849  9.61024616
   0.00000000  6.33022585 11.73368172
   2.11075880  0.00000000 11.73368172
   0.00000000  0.00000000 13.83821654
   2.10905031  6.33193435 13.83446740
   0.00000000  2.11024616  7.50000000
   2.11024616  4.22049233  7.50000000
   0.00000000  4.22049233  9.61024616
   2.11024616  2.11024616  9.61024616
   0.00000000  2.11075880 11.73368172
   2.11344006  4.22049233 11.73658877
   0.00000000  4.22049233 13.83544293
   2.10905031  2.10905031 13.83446740
   4.22049233  6.33073849  7.50000000
   6.33073849  0.00000000  7.50000000
   4.22049233  0.00000000  9.61024616
   6.33073849  6.33073849  9.61024616
   4.22049233  6.32754460 11.73658877
   6.33022585  0.00000000 11.73368172
   4.22049233  0.00000000 13.83544293
   6.33193435  6.33193435 13.83446740
   4.22049233  2.11024616  7.50000000
   6.33073849  4.22049233  7.50000000
   4.22049233  4.22049233  9.61024616
   6.33073849  2.11024616  9.61024616
   4.22049233  2.11344006 11.73658877
   6.32754460  4.22049233 11.73658877
   4.22049233  4.22049233 13.87814023
   6.33193435  2.10905031 13.83446740
   0.00000000  6.33073849  9.61024616
   2.11024616  0.00000000  9.61024616
   0.00000000  0.00000000  7.50000000
   2.11024616  6.33073849  7.50000000
   0.00000000  6.33258312 13.88586825
   2.10840153  0.00000000 13.88586825
   0.00000000  0.00000000 11.72785099
   2.10978841  6.33119624 11.72890095
   0.00000000  2.11024616  9.61024616
   2.11024616  4.22049233  9.61024616
   0.00000000  4.22049233  7.50000000
   2.11024616  2.11024616  7.50000000
   0.00000000  2.10840153 13.88586825
   2.10030867  4.22049233 13.88381232
   0.00000000  4.22049233 11.72684365
   2.10978841  2.10978841 11.72890095
   4.22049233  6.33073849  9.61024616
   6.33073849  0.00000000  9.61024616
   4.22049233  0.00000000  7.50000000
   6.33073849  6.33073849  7.50000000
   4.22049233  6.34067598 13.88381232
   6.33258312  0.00000000 13.88586825
   4.22049233  0.00000000 11.72684365
   6.33119624  6.33119624 11.72890095
   4.22049233  2.11024616  9.61024616
   6.33073849  4.22049233  9.61024616
   4.22049233  4.22049233  7.50000000
   6.33073849  2.11024616  7.50000000
   4.22049233  2.10030867 13.88381232
   6.34067598  4.22049233 13.88381232
   4.22049233  4.22049233 11.73684118
   6.33119624  2.10978841 11.72890095



--------------------------------------------------------------------------------------------------------


 k-point   1 :   0.0000 0.0000 0.0000  plane waves:   50745
 k-point   2 :   0.5000 0.0000 0.0000  plane waves:   50798
 k-point   3 :   0.5000 0.5000 0.0000  plane waves:   50752

 maximum and minimum number of plane-waves per node :      6394     6276

 maximum number of plane-waves:     50798
 maximum index in each direction: 
   IXMAX=   16   IYMAX=   16   IZMAX=   42
   IXMIN=  -17   IYMIN=  -17   IZMIN=  -42


 parallel 3D FFT for wavefunctions:
    minimum data exchange during FFTs selected (reduces bandwidth)
 parallel 3D FFT for charge:
    minimum data exchange during FFTs selected (reduces bandwidth)


 Radii for the augmentation spheres in the non-local exchange
 for species   1 augmentation radius   0.874 (default was   0.699)
       energy cutoff for augmentation   2400.0
 for species   2 augmentation radius   0.902 (default was   0.722)
       energy cutoff for augmentation   2400.0
 for species   3 augmentation radius   1.037 (default was   0.829)
       energy cutoff for augmentation   2400.0
 for species   4 augmentation radius   0.902 (default was   0.722)
       energy cutoff for augmentation   2400.0

 real space projection operators:
  total allocation   :       8963.86 KBytes
  max/ min on nodes  :       1251.34        828.03

 Maximum index for augmentation-charges in exchange          164
  SETUP_FOCK is finished

 total amount of memory used by VASP MPI-rank0    60468. kBytes
=======================================================================

   base      :      30000. kBytes
   nonl-proj :      14893. kBytes
   fftplans  :       3932. kBytes
   grid      :       3944. kBytes
   one-center:         73. kBytes
   HF        :        101. kBytes
   nonlr-proj:       2779. kBytes
   wavefun   :       4746. kBytes

     INWAV:  cpu time      0.0001: real time      0.0003
 Broyden mixing: mesh for mixing (old mesh)
   NGX = 33   NGY = 33   NGZ = 85
  (NGX  =108   NGY  =108   NGZ  =256)
  gives a total of  92565 points

 initial charge density was supplied:
 charge density of overlapping atoms calculated
 number of electron     458.0000000 magnetization 
 keeping initial charge density in first step


--------------------------------------------------------------------------------------------------------


 Maximum index for augmentation-charges          334 (set IRDMAX)


--------------------------------------------------------------------------------------------------------


    FEWALD:  cpu time      0.0027: real time      0.0027


--------------------------------------- Iteration      1(   1)  ---------------------------------------


    POTLOK:  cpu time      0.0640: real time      0.0646
    SETDIJ:  cpu time      0.1920: real time      0.1920
    TRIAL :  cpu time     18.8068: real time     18.8585
    CORREC:  cpu time      0.0012: real time      0.0012
    --------------------------------------------
      LOOP:  cpu time     19.0658: real time     19.1421

 eigenvalue-minimisations  :  2304
 total energy-change (2. order) : 0.1340534E+04  (-0.3092824E+05)
 number of electron     458.0000000 magnetization 
 augmentation part      458.0000000 magnetization 

 DIPCOR: dipole corrections for dipol
 direction  3 min pos     1,
 dipolmoment           0.000000      0.000000     -0.000345 electrons x Angstroem
 Tr[quadrupol]     -6318.707919

 energy correction for charged system         0.000000 eV
 dipol+quadrupol energy correction           -0.000000 eV
 added-field ion interaction          0.002843 eV  (added to PSCEN)


 Free energy of the ion-electron system (eV)
  ---------------------------------------------------
  alpha Z        PSCENC =       907.96694695
  Ewald energy   TEWEN  =    136848.91220783
  -Hartree energ DENC   =   -172948.48318882
  -exchange      EXHF   =         0.00000000
  -V(xc)+E(xc)   XCENC  =      1789.11529784
  PAW double counting   =     32310.01086261   -38519.19434489
  entropy T*S    EENTRO =        -0.01830474
  eigenvalues    EBANDS =     -7243.46965082
  atomic energy  EATOM  =     48195.69443388
  ---------------------------------------------------
  free energy    TOTEN  =      1340.53425984 eV

  energy without entropy =     1340.55256458  energy(sigma->0) =     1340.54341221
  exchange ACFDT corr.  =         0.00000000  see jH, gK, PRB 81, 115126


--------------------------------------------------------------------------------------------------------




--------------------------------------- Iteration      1(   2)  ---------------------------------------


    TRIAL :  cpu time      2.8261: real time      2.8266
    CORREC:  cpu time      0.0003: real time      0.0003
    --------------------------------------------
      LOOP:  cpu time      2.8330: real time      2.8418

 eigenvalue-minimisations  :  2304
 total energy-change (2. order) :-0.4302627E+04  (-0.4230664E+04)
 number of electron     458.0000000 magnetization 
 augmentation part      458.0000000 magnetization 

 DIPCOR: dipole corrections for dipol
 direction  3 min pos     1,
 dipolmoment           0.000000      0.000000     -0.000345 electrons x Angstroem
 Tr[quadrupol]     -6318.707919

 energy correction for charged system         0.000000 eV
 dipol+quadrupol energy correction           -0.000000 eV
 added-field ion interaction          0.002843 eV  (added to PSCEN)


 Free energy of the ion-electron system (eV)
  ---------------------------------------------------
  alpha Z        PSCENC =       907.96694695
  Ewald energy   TEWEN  =    136848.91220783
  -Hartree energ DENC   =   -172948.48318882
  -exchange      EXHF   =         0.00000000
  -V(xc)+E(xc)   XCENC  =      1789.11529784
  PAW double counting   =     32310.01086261   -38519.19434489
  entropy T*S    EENTRO =        -0.00000000
  eigenvalues    EBANDS =    -11546.11482886
  atomic energy  EATOM  =     48195.69443388
  ---------------------------------------------------
  free energy    TOTEN  =     -2962.09261346 eV

  energy without entropy =    -2962.09261346  energy(sigma->0) =    -2962.09261346
  exchange ACFDT corr.  =         0.00000000  see jH, gK, PRB 81, 115126


--------------------------------------------------------------------------------------------------------




--------------------------------------- Iteration      1(   3)  ---------------------------------------


    TRIAL :  cpu time      3.0027: real time      3.0033
    CORREC:  cpu time      0.0002: real time      0.0002
    --------------------------------------------
      LOOP:  cpu time      3.0086: real time      3.0196

 eigenvalue-minimisations  :  2304
 total energy-change (2. order) :-0.3161844E+03  (-0.3140370E+03)
 number of electron     458.0000000 magnetization 
 augmentation part      458.0000000 magnetization 

 DIPCOR: dipole corrections for dipol
 direction  3 min pos     1,
 dipolmoment           0.000000      0.000000     -0.000345 electrons x Angstroem
 Tr[quadrupol]     -6318.707919

 energy correction for charged system         0.000000 eV
 dipol+quadrupol energy correction           -0.000000 eV
 added-field ion interaction          0.002843 eV  (added to PSCEN)


 Free energy of the ion-electron system (eV)
  ---------------------------------------------------
  alpha Z        PSCENC =       907.96694695
  Ewald energy   TEWEN  =    136848.91220783
  -Hartree energ DENC   =   -172948.48318882
  -exchange      EXHF   =         0.00000000
  -V(xc)+E(xc)   XCENC  =      1789.11529784
  PAW double counting   =     32310.01086261   -38519.19434489
  entropy T*S    EENTRO =        -0.00000000
  eigenvalues    EBANDS =    -11862.29924802
  atomic energy  EATOM  =     48195.69443388
  ---------------------------------------------------
  free energy    TOTEN  =     -3278.27703261 eV

  energy without entropy =    -3278.27703261  energy(sigma->0) =    -3278.27703261
  exchange ACFDT corr.  =         0.00000000  see jH, gK, PRB 81, 115126


--------------------------------------------------------------------------------------------------------




--------------------------------------- Iteration      1(   4)  ---------------------------------------


    TRIAL :  cpu time      3.1364: real time      3.1371
    CORREC:  cpu time      0.0003: real time      0.0003
    --------------------------------------------
      LOOP:  cpu time      3.1517: real time      3.1526

 eigenvalue-minimisations  :  2368
 total energy-change (2. order) :-0.6180400E+01  (-0.6173442E+01)
 number of electron     458.0000000 magnetization 
 augmentation part      458.0000000 magnetization 

 DIPCOR: dipole corrections for dipol
 direction  3 min pos     1,
 dipolmoment           0.000000      0.000000     -0.000345 electrons x Angstroem
 Tr[quadrupol]     -6318.707919

 energy correction for charged system         0.000000 eV
 dipol+quadrupol energy correction           -0.000000 eV
 added-field ion interaction          0.002843 eV  (added to PSCEN)


 Free energy of the ion-electron system (eV)
  ---------------------------------------------------
  alpha Z        PSCENC =       907.96694695
  Ewald energy   TEWEN  =    136848.91220783
  -Hartree energ DENC   =   -172948.48318882
  -exchange      EXHF   =         0.00000000
  -V(xc)+E(xc)   XCENC  =      1789.11529784
  PAW double counting   =     32310.01086261   -38519.19434489
  entropy T*S    EENTRO =        -0.00000000
  eigenvalues    EBANDS =    -11868.47964795
  atomic energy  EATOM  =     48195.69443388
  ---------------------------------------------------
  free energy    TOTEN  =     -3284.45743254 eV

  energy without entropy =    -3284.45743254  energy(sigma->0) =    -3284.45743254
  exchange ACFDT corr.  =         0.00000000  see jH, gK, PRB 81, 115126


--------------------------------------------------------------------------------------------------------




--------------------------------------- Iteration      1(   5)  ---------------------------------------


    POTLOK:  cpu time      0.1184: real time      0.1184
    SETDIJ:  cpu time      0.6331: real time      0.6334
    TRIAL :  cpu time     72.1882: real time     72.2131
    CORREC:  cpu time      0.0003: real time      0.0003
    CHARGE:  cpu time      0.0667: real time      0.0670
    --------------------------------------------
      LOOP:  cpu time     73.0112: real time     73.0477

 eigenvalue-minimisations  :  2240
 total energy-change (2. order) : 0.2747904E+04  (-0.1469239E+01)
 number of electron     457.9999386 magnetization 
 augmentation part      160.7584632 magnetization 

 DIPCOR: dipole corrections for dipol
 direction  3 min pos     1,
 dipolmoment           0.000000      0.000000     -0.000345 electrons x Angstroem
 Tr[quadrupol]     -6318.707919

 energy correction for charged system         0.000000 eV
 dipol+quadrupol energy correction           -0.000000 eV
 added-field ion interaction          0.002843 eV  (added to PSCEN)


 Free energy of the ion-electron system (eV)
  ---------------------------------------------------
  alpha Z        PSCENC =       907.96694695
  Ewald energy   TEWEN  =    136848.91220783
  -Hartree energ DENC   =   -172948.48318882
  -exchange      EXHF   =      1361.70771943
  -V(xc)+E(xc)   XCENC  =      1423.04521582
  PAW double counting   =     32649.43877705   -36331.98648824
  entropy T*S    EENTRO =        -0.00000000
  eigenvalues    EBANDS =    -12642.84864429
  atomic energy  EATOM  =     48195.69443388
  ---------------------------------------------------
  free energy    TOTEN  =      -536.55302038 eV

  energy without entropy =     -536.55302038  energy(sigma->0) =     -536.55302038
  exchange ACFDT corr.  =         0.00000000  see jH, gK, PRB 81, 115126


--------------------------------------------------------------------------------------------------------




--------------------------------------- Iteration      1(   6)  ---------------------------------------


    POTLOK:  cpu time      0.1052: real time      0.1052
    SETDIJ:  cpu time      0.6302: real time      0.6305
    TRIAL :  cpu time     69.8441: real time     69.8717
    CORREC:  cpu time     70.1239: real time     70.1514
    CHARGE:  cpu time      0.0584: real time      0.0584
    --------------------------------------------
      LOOP:  cpu time    140.7775: real time    140.8331

 eigenvalue-minimisations  :     0
 total energy-change (2. order) : 0.2291441E+03  (-0.1219398E+03)
 number of electron     457.9999269 magnetization 
 augmentation part      157.2247841 magnetization 

 DIPCOR: dipole corrections for dipol
 direction  3 min pos     1,
 dipolmoment           0.000000      0.000000      0.329849 electrons x Angstroem
 Tr[quadrupol]     -6350.001149

 energy correction for charged system         0.000000 eV
 dipol+quadrupol energy correction           -0.006477 eV
 added-field ion interaction         -2.721495 eV  (added to PSCEN)


 Free energy of the ion-electron system (eV)
  ---------------------------------------------------
  alpha Z        PSCENC =       903.03341703
  Ewald energy   TEWEN  =    136848.91220783
  -Hartree energ DENC   =   -177026.58640674
  -exchange      EXHF   =      1369.21598159
  -V(xc)+E(xc)   XCENC  =      1540.72589608
  PAW double counting   =     37765.89387903   -41409.62164253
  entropy T*S    EENTRO =        -0.00000000
  eigenvalues    EBANDS =     -8494.67669591
  atomic energy  EATOM  =     48195.69443388
  ---------------------------------------------------
  free energy    TOTEN  =      -307.40892974 eV

  energy without entropy =     -307.40892974  energy(sigma->0) =     -307.40892974
  exchange ACFDT corr.  =        -0.00000000  see jH, gK, PRB 81, 115126


--------------------------------------------------------------------------------------------------------




--------------------------------------- Iteration      1(   7)  ---------------------------------------


    POTLOK:  cpu time      0.1191: real time      0.1191
    SETDIJ:  cpu time      0.6321: real time      0.6322
    TRIAL :  cpu time     69.1324: real time     69.1776
    CORREC:  cpu time     69.9584: real time     69.9846
    CHARGE:  cpu time      0.0596: real time      0.0596
    --------------------------------------------
      LOOP:  cpu time    139.9103: real time    139.9927

 eigenvalue-minimisations  :     0
 total energy-change (2. order) :-0.1226757E+03  (-0.9929418E+01)
 number of electron     457.9999253 magnetization 
 augmentation part      155.2739170 magnetization 

 DIPCOR: dipole corrections for dipol
 direction  3 min pos     1,
 dipolmoment           0.000000      0.000000      0.264457 electrons x Angstroem
 Tr[quadrupol]     -6360.565168

 energy correction for charged system         0.000000 eV
 dipol+quadrupol energy correction           -0.004164 eV
 added-field ion interaction         -2.181965 eV  (added to PSCEN)


 Free energy of the ion-electron system (eV)
  ---------------------------------------------------
  alpha Z        PSCENC =       904.91580527
  Ewald energy   TEWEN  =    136848.91220783
  -Hartree energ DENC   =   -174962.68212490
  -exchange      EXHF   =      1315.44055321
  -V(xc)+E(xc)   XCENC  =      1475.35372786
  PAW double counting   =     36488.80630013   -40188.04447878
  entropy T*S    EENTRO =        -0.00000000
  eigenvalues    EBANDS =    -10508.48110029
  atomic energy  EATOM  =     48195.69443388
  ---------------------------------------------------
  free energy    TOTEN  =      -430.08467578 eV

  energy without entropy =     -430.08467578  energy(sigma->0) =     -430.08467578
  exchange ACFDT corr.  =        -0.00000000  see jH, gK, PRB 81, 115126


--------------------------------------------------------------------------------------------------------




--------------------------------------- Iteration      1(   8)  ---------------------------------------


    POTLOK:  cpu time      0.1080: real time      0.1080
    SETDIJ:  cpu time      0.6308: real time      0.6308
    TRIAL :  cpu time     69.3646: real time     69.3939
    CORREC:  cpu time     69.8392: real time     69.8685
    CHARGE:  cpu time      0.0579: real time      0.0579
    --------------------------------------------
      LOOP:  cpu time    140.0194: real time    140.0785

 eigenvalue-minimisations  :     0
 total energy-change (2. order) :-0.9989653E+01  (-0.6649478E+01)
 number of electron     457.9999231 magnetization 
 augmentation part      155.3752434 magnetization 

 DIPCOR: dipole corrections for dipol
 direction  3 min pos     1,
 dipolmoment           0.000000      0.000000      0.139523 electrons x Angstroem
 Tr[quadrupol]     -6361.621880

 energy correction for charged system         0.000000 eV
 dipol+quadrupol energy correction           -0.001159 eV
 added-field ion interaction         -1.151167 eV  (added to PSCEN)


 Free energy of the ion-electron system (eV)
  ---------------------------------------------------
  alpha Z        PSCENC =       906.16280878
  Ewald energy   TEWEN  =    136848.91220783
  -Hartree energ DENC   =   -175006.20796930
  -exchange      EXHF   =      1309.25745126
  -V(xc)+E(xc)   XCENC  =      1466.84050922
  PAW double counting   =     36396.14072994   -40033.49314828
  entropy T*S    EENTRO =        -0.00000000
  eigenvalues    EBANDS =    -10523.38135198
  atomic energy  EATOM  =     48195.69443388
  ---------------------------------------------------
  free energy    TOTEN  =      -440.07432865 eV

  energy without entropy =     -440.07432865  energy(sigma->0) =     -440.07432865
  exchange ACFDT corr.  =        -0.00000000  see jH, gK, PRB 81, 115126


--------------------------------------------------------------------------------------------------------




--------------------------------------- Iteration      1(   9)  ---------------------------------------


    POTLOK:  cpu time      0.1081: real time      0.1081
    SETDIJ:  cpu time      0.6324: real time      0.6327
    TRIAL :  cpu time     69.4627: real time     69.4860
    CORREC:  cpu time     70.0536: real time     70.0598
    CHARGE:  cpu time      0.0563: real time      0.0563
    --------------------------------------------
      LOOP:  cpu time    140.3197: real time    140.3584

 eigenvalue-minimisations  :     0
 total energy-change (2. order) :-0.6498582E+01  (-0.3035682E+01)
 number of electron     457.9999230 magnetization 
 augmentation part      155.3131155 magnetization 

 DIPCOR: dipole corrections for dipol
 direction  3 min pos     1,
 dipolmoment           0.000000      0.000000      0.067309 electrons x Angstroem
 Tr[quadrupol]     -6353.844462

 energy correction for charged system         0.000000 eV
 dipol+quadrupol energy correction           -0.000270 eV
 added-field ion interaction         -0.555349 eV  (added to PSCEN)


 Free energy of the ion-electron system (eV)
  ---------------------------------------------------
  alpha Z        PSCENC =       907.21333443
  Ewald energy   TEWEN  =    136848.91220783
  -Hartree energ DENC   =   -174901.12631218
  -exchange      EXHF   =      1306.45477692
  -V(xc)+E(xc)   XCENC  =      1465.00136221
  PAW double counting   =     36280.41401689   -39958.17757508
  entropy T*S    EENTRO =        -0.00000000
  eigenvalues    EBANDS =    -10590.95915506
  atomic energy  EATOM  =     48195.69443388
  ---------------------------------------------------
  free energy    TOTEN  =      -446.57291016 eV

  energy without entropy =     -446.57291016  energy(sigma->0) =     -446.57291016
  exchange ACFDT corr.  =        -0.00000000  see jH, gK, PRB 81, 115126


--------------------------------------------------------------------------------------------------------




--------------------------------------- Iteration      1(  10)  ---------------------------------------


    POTLOK:  cpu time      0.1106: real time      0.1106
    SETDIJ:  cpu time      0.6319: real time      0.6319
    TRIAL :  cpu time     69.2230: real time     69.2283
    CORREC:  cpu time     69.9858: real time     69.9923
    CHARGE:  cpu time      0.0574: real time      0.0574
    --------------------------------------------
      LOOP:  cpu time    140.0272: real time    140.0393

 eigenvalue-minimisations  :     0
 total energy-change (2. order) :-0.3071007E+01  (-0.1053612E+01)
 number of electron     457.9999237 magnetization 
 augmentation part      155.1900807 magnetization 

 DIPCOR: dipole corrections for dipol
 direction  3 min pos     1,
 dipolmoment           0.000000      0.000000      0.104090 electrons x Angstroem
 Tr[quadrupol]     -6351.536879

 energy correction for charged system         0.000000 eV
 dipol+quadrupol energy correction           -0.000645 eV
 added-field ion interaction         -0.858818 eV  (added to PSCEN)


 Free energy of the ion-electron system (eV)
  ---------------------------------------------------
  alpha Z        PSCENC =       907.37663731
  Ewald energy   TEWEN  =    136848.91220783
  -Hartree energ DENC   =   -174682.98525240
  -exchange      EXHF   =      1303.32825942
  -V(xc)+E(xc)   XCENC  =      1462.53464187
  PAW double counting   =     36131.17577734   -39816.01796281
  entropy T*S    EENTRO =        -0.00000000
  eigenvalues    EBANDS =    -10799.66265994
  atomic energy  EATOM  =     48195.69443388
  ---------------------------------------------------
  free energy    TOTEN  =      -449.64391749 eV

  energy without entropy =     -449.64391749  energy(sigma->0) =     -449.64391749
  exchange ACFDT corr.  =        -0.00000000  see jH, gK, PRB 81, 115126


--------------------------------------------------------------------------------------------------------




--------------------------------------- Iteration      1(  11)  ---------------------------------------


    POTLOK:  cpu time      0.1099: real time      0.1099
    SETDIJ:  cpu time      0.6320: real time      0.6320
    TRIAL :  cpu time     69.3666: real time     69.3719
    CORREC:  cpu time     69.7044: real time     69.7093
    CHARGE:  cpu time      0.0555: real time      0.0555
    --------------------------------------------
      LOOP:  cpu time    139.8728: real time    139.8946

 eigenvalue-minimisations  :     0
 total energy-change (2. order) :-0.1057198E+01  (-0.4285854E+00)
 number of electron     457.9999244 magnetization 
 augmentation part      155.3178950 magnetization 

 DIPCOR: dipole corrections for dipol
 direction  3 min pos     1,
 dipolmoment           0.000000      0.000000      0.131634 electrons x Angstroem
 Tr[quadrupol]     -6352.092483

 energy correction for charged system         0.000000 eV
 dipol+quadrupol energy correction           -0.001032 eV
 added-field ion interaction         -1.086078 eV  (added to PSCEN)


 Free energy of the ion-electron system (eV)
  ---------------------------------------------------
  alpha Z        PSCENC =       907.16062758
  Ewald energy   TEWEN  =    136848.91220783
  -Hartree energ DENC   =   -174573.06306003
  -exchange      EXHF   =      1301.82037455
  -V(xc)+E(xc)   XCENC  =      1461.26032264
  PAW double counting   =     36050.66352466   -39723.58673005
  entropy T*S    EENTRO =        -0.00000000
  eigenvalues    EBANDS =    -10919.56281627
  atomic energy  EATOM  =     48195.69443388
  ---------------------------------------------------
  free energy    TOTEN  =      -450.70111522 eV

  energy without entropy =     -450.70111522  energy(sigma->0) =     -450.70111522
  exchange ACFDT corr.  =        -0.00000000  see jH, gK, PRB 81, 115126


--------------------------------------------------------------------------------------------------------




--------------------------------------- Iteration      1(  12)  ---------------------------------------


    POTLOK:  cpu time      0.1100: real time      0.1100
    SETDIJ:  cpu time      0.6319: real time      0.6319
    TRIAL :  cpu time     69.3302: real time     69.3366
    CORREC:  cpu time     69.7526: real time     69.7579
    CHARGE:  cpu time      0.0573: real time      0.0573
    --------------------------------------------
      LOOP:  cpu time    139.9004: real time    139.9125

 eigenvalue-minimisations  :     0
 total energy-change (2. order) :-0.4285775E+00  (-0.1773313E+00)
 number of electron     457.9999247 magnetization 
 augmentation part      155.5164046 magnetization 

 DIPCOR: dipole corrections for dipol
 direction  3 min pos     1,
 dipolmoment           0.000000      0.000000      0.150513 electrons x Angstroem
 Tr[quadrupol]     -6352.774435

 energy correction for charged system         0.000000 eV
 dipol+quadrupol energy correction           -0.001349 eV
 added-field ion interaction         -1.241841 eV  (added to PSCEN)


 Free energy of the ion-electron system (eV)
  ---------------------------------------------------
  alpha Z        PSCENC =       906.87763135
  Ewald energy   TEWEN  =    136848.91220783
  -Hartree energ DENC   =   -174575.06411536
  -exchange      EXHF   =      1301.83838103
  -V(xc)+E(xc)   XCENC  =      1461.65191496
  PAW double counting   =     36029.98679585   -39700.61115976
  entropy T*S    EENTRO =        -0.00000000
  eigenvalues    EBANDS =    -10920.41578247
  atomic energy  EATOM  =     48195.69443388
  ---------------------------------------------------
  free energy    TOTEN  =      -451.12969269 eV

  energy without entropy =     -451.12969269  energy(sigma->0) =     -451.12969269
  exchange ACFDT corr.  =         0.00000000  see jH, gK, PRB 81, 115126


[...]
    295       9.4797      0.00000
    296       9.5295      0.00000
    297       9.5494      0.00000
    298       9.5779      0.00000
    299       9.5788      0.00000
    300       9.7012      0.00000
    301       9.9456      0.00000
    302       9.9716      0.00000
    303      10.0406      0.00000
    304      10.0445      0.00000
    305      10.1244      0.00000
    306      10.1964      0.00000
    307      10.2530      0.00000
    308      10.2949      0.00000
    309      10.3995      0.00000
    310      10.4219      0.00000
    311      10.4454      0.00000
    312      10.5892      0.00000
    313      10.6782      0.00000
    314      10.7241      0.00000
    315      10.8599      0.00000
    316      10.8871      0.00000
    317      11.2509      0.00000
    318      11.3193      0.00000
    319      11.5293      0.00000
    320      11.6059      0.00000


--------------------------------------------------------------------------------------------------------


 soft charge-density along one line, spin component           1
         0         1         2         3         4         5         6         7         8         9
 total charge-density along one line

 pseudopotential strength for first ion, spin component:           1
  9.986  13.276   0.000   0.018  -0.000  -0.000  -0.058   0.000
 13.276  17.648   0.000   0.023  -0.000  -0.000  -0.076   0.000
  0.000   0.000  -4.321  -0.000  -0.000   8.486   0.000   0.000
  0.018   0.023  -0.000  -4.277   0.000   0.000   8.375  -0.000
 -0.000  -0.000  -0.000   0.000  -4.321   0.000  -0.000   8.486
 -0.000  -0.000   8.486   0.000   0.000 -18.793  -0.000  -0.000
 -0.058  -0.076   0.000   8.375  -0.000  -0.000 -18.519   0.000
  0.000   0.000   0.000  -0.000   8.486  -0.000   0.000 -18.793
 total augmentation occupancy for first ion, spin component:           1
  6.839  -3.081   0.000   2.086  -0.000   0.000   0.374  -0.000
 -3.081   1.813   0.000  -1.600   0.000   0.000  -0.222  -0.000
  0.000   0.000   0.803   0.000   0.000   0.059   0.000   0.000
  2.086  -1.600   0.000   2.233   0.000   0.000   0.204  -0.000
 -0.000   0.000   0.000   0.000   0.803   0.000   0.000   0.059
  0.000   0.000   0.059   0.000   0.000   0.004   0.000   0.000
  0.374  -0.222   0.000   0.204   0.000   0.000   0.028   0.000
 -0.000  -0.000   0.000  -0.000   0.059   0.000   0.000   0.004


------------------------ aborting loop because EDIFF is reached ----------------------------------------


    FORLOC:  cpu time      0.0304: real time      0.0304
    FORHF :  cpu time     68.8454: real time     68.8509
    FORNL :  cpu time      0.3312: real time      0.3314
    STRESS:  cpu time      0.9299: real time      0.9302
    FORCOR:  cpu time      0.1160: real time      0.1160
    OFIELD:  cpu time      0.0001: real time      0.0001

  DFT-D2 method for vdW energy calculation
  -------------------------------------------------------------------

  Parameters of vdW forcefield:
         C6(Jnm^6/mol)     R0(A)
   -----------------------------
   C        1.750          1.452
   O        0.700          1.342
   Mg       0.630          1.243
   O        0.700          1.342

  vdW correction parametrized for the method   Vv  0

  IVDW =   1
  VDW_RADIUS =    50.000 A
  VDW_S6 =     1.050
  VDW_SR =     1.000
  VDW_D =    20.000
  LVDW_EWALD = F

  Number of pair interactions contributing to vdW energy:  768274
  Edisp (eV):   -5.16418
    FORVDW:  cpu time      0.1856: real time      0.1856

  FORCE on cell =-STRESS in cart. coord.  units (eV):
  Direction    XX          YY          ZZ          XY          YZ          ZX
  --------------------------------------------------------------------------------------
  Alpha Z   907.96410   907.96410   907.96410
  Ewald  157351.34202157351.34202************     0.00000     0.00000    -0.00000
  Hartree167813.82127167813.82127************    -0.00000    -0.00000    -0.00000
  E(xc)   -2036.45925 -2036.45925 -2038.49964     0.00000     0.00000     0.00000
  Local  ************************334731.61962    -0.00000    -0.00000    -0.00000
  n-local -1185.76466 -1186.23508 -1218.07691     0.00000    -0.00000     0.00000
  augment   903.24418   903.24418   892.32637    -0.00000    -0.00000    -0.00000
  Kinetic  7522.41615  7524.24194  7544.01263    -0.00000     0.00001    -0.00000
  Fock    -2007.80307 -2007.88626 -2007.02126     0.00000    -0.00000     0.00000
  vdW        -7.51562    -7.51562    -6.19905     0.00000     0.00000     0.00000
  -------------------------------------------------------------------------------------
  Total     -38.85550   -38.85550   -12.38286     0.00000    -0.00000     0.00000
  in kB     -40.96104   -40.96104   -13.05388     0.00000    -0.00000     0.00000
  external pressure =      -31.66 kB  Pullay stress =        0.00 kB


 VOLUME and BASIS-vectors are now :
 -----------------------------------------------------------------------------
  energy-cutoff  :      600.00
  volume of cell :     1519.82
      direct lattice vectors                 reciprocal lattice vectors
     8.440984654  0.000000000  0.000000000     0.118469591  0.000000000  0.000000000
     0.000000000  8.440984654  0.000000000     0.000000000  0.118469591  0.000000000
     0.000000000  0.000000000 21.330738491     0.000000000  0.000000000  0.046880702

  length of vectors
     8.440984654  8.440984654 21.330738491     0.118469591  0.118469591  0.046880702


 FORCES acting on ions:
    Electron-Ion                     Ewald-Force                    Non-Local-Force
 -----------------------------------------------------------------------------------------------
   0.959E-13 -.315E-12 -.809E+03   -.158E-13 -.444E-14 0.782E+03   0.000E+00 -.662E-23 0.269E+02
   0.420E-12 -.263E-12 -.140E+04   -.466E-14 0.888E-15 0.146E+04   0.662E-23 0.000E+00 -.549E+02
   -.569E-13 -.117E+00 0.208E+04   0.560E-13 0.117E+00 -.207E+04   0.000E+00 -.203E-04 -.639E+01
   0.117E+00 0.673E-13 0.208E+04   -.117E+00 0.671E-13 -.207E+04   0.203E-04 -.827E-24 -.639E+01
   -.487E-13 0.242E-12 0.712E+03   -.150E-10 0.150E-10 -.713E+03   0.124E-23 0.000E+00 0.440E+00
   0.390E+00 -.390E+00 0.713E+03   -.386E+00 0.386E+00 -.713E+03   -.245E-02 0.245E-02 0.463E+00
   -.752E-13 -.261E+01 -.643E+03   0.157E-11 0.259E+01 0.644E+03   0.331E-23 0.194E-01 -.848E-01
   0.261E+01 0.539E-13 -.643E+03   -.259E+01 -.151E-11 0.644E+03   -.194E-01 -.662E-23 -.848E-01
   -.371E-13 0.135E-13 -.200E+04   0.444E-12 -.416E-12 0.200E+04   0.000E+00 0.000E+00 0.531E+01
   0.164E+02 -.164E+02 -.198E+04   -.165E+02 0.165E+02 0.198E+04   0.768E-01 -.768E-01 0.540E+01
   -.434E-13 0.117E+00 0.208E+04   -.277E-12 -.117E+00 -.207E+04   0.000E+00 0.203E-04 -.639E+01
   0.108E+00 0.754E-12 0.208E+04   -.106E+00 0.131E-10 -.207E+04   -.136E-02 -.662E-23 -.639E+01
   -.646E-13 0.128E-11 0.713E+03   -.165E-10 0.000E+00 -.714E+03   0.331E-23 0.000E+00 0.401E+00
   0.390E+00 0.390E+00 0.713E+03   -.386E+00 -.386E+00 -.713E+03   -.245E-02 -.245E-02 0.463E+00
   -.761E-13 0.261E+01 -.643E+03   0.304E-11 -.259E+01 0.644E+03   -.132E-22 -.194E-01 -.848E-01
   0.355E+01 0.119E-11 -.637E+03   -.347E+01 0.178E-14 0.638E+03   -.743E-01 -.331E-23 -.213E+00
   -.779E-13 0.283E-12 -.199E+04   -.355E-13 -.995E-13 0.198E+04   0.000E+00 0.993E-23 0.532E+01
   0.164E+02 0.164E+02 -.198E+04   -.165E+02 -.165E+02 0.198E+04   0.768E-01 0.768E-01 0.540E+01
   0.941E-12 -.108E+00 0.208E+04   -.129E-10 0.106E+00 -.207E+04   0.265E-22 0.136E-02 -.639E+01
   -.117E+00 0.539E-13 0.208E+04   0.117E+00 0.471E-13 -.207E+04   -.203E-04 0.000E+00 -.639E+01
   0.845E-12 -.350E-12 0.713E+03   0.145E-11 0.150E-10 -.714E+03   0.000E+00 0.496E-23 0.401E+00
   -.390E+00 -.390E+00 0.713E+03   0.386E+00 0.386E+00 -.713E+03   0.245E-02 0.245E-02 0.463E+00
   0.803E-12 -.355E+01 -.637E+03   -.141E-11 0.347E+01 0.638E+03   -.165E-23 0.743E-01 -.213E+00
   -.261E+01 0.404E-13 -.643E+03   0.259E+01 -.156E-11 0.644E+03   0.194E-01 -.579E-23 -.848E-01
   0.908E-12 0.337E-12 -.199E+04   0.782E-13 -.355E-14 0.198E+04   0.000E+00 0.662E-23 0.532E+01
   -.164E+02 -.164E+02 -.198E+04   0.165E+02 0.165E+02 0.198E+04   -.768E-01 -.768E-01 0.540E+01
   0.910E-12 0.108E+00 0.208E+04   -.131E-10 -.106E+00 -.207E+04   -.132E-22 -.136E-02 -.639E+01
   -.108E+00 0.337E-12 0.208E+04   0.106E+00 0.131E-10 -.207E+04   0.136E-02 -.662E-23 -.639E+01
   0.888E-12 0.242E-11 0.713E+03   -.782E-13 0.355E-14 -.714E+03   -.331E-23 0.000E+00 0.535E+00
   -.390E+00 0.390E+00 0.713E+03   0.386E+00 -.386E+00 -.713E+03   0.245E-02 -.245E-02 0.463E+00
   0.800E-12 0.355E+01 -.637E+03   -.284E-13 -.347E+01 0.638E+03   -.331E-23 -.743E-01 -.213E+00
   -.355E+01 -.167E-11 -.637E+03   0.347E+01 0.000E+00 0.638E+03   0.743E-01 0.455E-23 -.213E+00
   0.915E-12 0.152E-11 -.193E+04   -.426E-13 -.391E-13 0.192E+04   0.662E-23 0.000E+00 0.421E+01
   -.164E+02 0.164E+02 -.198E+04   0.165E+02 -.165E+02 0.198E+04   -.768E-01 0.768E-01 0.540E+01
   -.697E-13 -.358E+00 0.534E+03   0.409E-13 0.351E+00 -.534E+03   -.794E-22 0.762E-02 -.932E-01
   0.358E+00 -.135E-12 0.534E+03   -.351E+00 0.391E-13 -.534E+03   -.762E-02 0.106E-21 -.932E-01
   -.561E-13 0.943E-13 0.156E+04   0.853E-11 -.844E-11 -.156E+04   0.000E+00 0.000E+00 0.313E+01
   0.836E-01 -.836E-01 0.156E+04   -.828E-01 0.828E-01 -.156E+04   -.104E-02 0.104E-02 0.313E+01
   -.489E-13 -.687E+01 -.152E+04   -.871E-12 0.681E+01 0.153E+04   0.596E-22 0.540E-01 -.458E+01
   0.687E+01 -.377E-12 -.152E+04   -.681E+01 0.881E-12 0.153E+04   -.540E-01 0.132E-22 -.458E+01
   -.590E-13 -.148E-12 -.479E+03   -.853E-13 0.639E-13 0.479E+03   0.827E-23 0.000E+00 0.258E+00
   0.228E+01 -.228E+01 -.474E+03   -.226E+01 0.226E+01 0.474E+03   -.898E-02 0.898E-02 0.318E+00
   -.588E-13 0.358E+00 0.534E+03   0.142E-13 -.351E+00 -.534E+03   0.596E-22 -.762E-02 -.932E-01
   0.302E+00 0.364E-12 0.534E+03   -.330E+00 -.764E-11 -.534E+03   0.348E-01 -.331E-23 -.112E+00
   -.462E-13 0.633E-12 0.156E+04   0.845E-11 -.796E-12 -.156E+04   -.331E-23 0.000E+00 0.313E+01
   0.836E-01 0.836E-01 0.156E+04   -.828E-01 -.828E-01 -.156E+04   -.104E-02 -.104E-02 0.313E+01
   -.337E-13 0.687E+01 -.152E+04   -.774E-12 -.681E+01 0.153E+04   0.000E+00 -.540E-01 -.458E+01
   0.208E+02 0.606E-12 -.149E+04   -.205E+02 0.810E-11 0.150E+04   -.209E+00 -.132E-22 -.453E+01
   -.534E-13 0.108E-12 -.474E+03   -.741E-11 0.711E-14 0.474E+03   0.000E+00 0.000E+00 0.275E+00
   0.228E+01 0.228E+01 -.474E+03   -.226E+01 -.226E+01 0.474E+03   -.898E-02 -.898E-02 0.318E+00
   0.333E-12 -.302E+00 0.534E+03   0.764E-11 0.330E+00 -.534E+03   0.132E-22 -.348E-01 -.112E+00
   -.358E+00 -.121E-12 0.534E+03   0.351E+00 0.142E-13 -.534E+03   0.762E-02 -.794E-22 -.932E-01
   0.383E-12 0.512E-12 0.156E+04   0.845E-12 -.846E-11 -.156E+04   -.132E-22 0.000E+00 0.313E+01
   -.836E-01 -.836E-01 0.156E+04   0.828E-01 0.828E-01 -.156E+04   0.104E-02 0.104E-02 0.313E+01
   0.401E-12 -.208E+02 -.149E+04   -.816E-11 0.205E+02 0.150E+04   0.132E-22 0.209E+00 -.453E+01
   -.687E+01 -.512E-12 -.152E+04   0.681E+01 0.924E-12 0.153E+04   0.540E-01 0.000E+00 -.458E+01
   0.335E-12 -.808E-13 -.474E+03   -.711E-14 0.738E-11 0.474E+03   0.207E-24 0.000E+00 0.275E+00
   -.228E+01 -.228E+01 -.474E+03   0.226E+01 0.226E+01 0.474E+03   0.898E-02 0.898E-02 0.318E+00
   0.325E-12 0.302E+00 0.534E+03   0.763E-11 -.330E+00 -.534E+03   0.331E-23 0.348E-01 -.112E+00
   -.302E+00 0.133E-11 0.534E+03   0.330E+00 -.769E-11 -.534E+03   -.348E-01 -.331E-23 -.112E+00
   0.360E-12 0.199E-11 0.156E+04   0.824E-12 -.838E-12 -.156E+04   0.132E-22 0.000E+00 0.313E+01
   -.836E-01 0.836E-01 0.156E+04   0.828E-01 -.828E-01 -.156E+04   0.104E-02 -.104E-02 0.313E+01
   0.390E-12 0.208E+02 -.149E+04   -.820E-11 -.205E+02 0.150E+04   -.331E-23 -.209E+00 -.453E+01
   -.208E+02 -.197E-11 -.149E+04   0.205E+02 0.819E-11 0.150E+04   0.209E+00 -.132E-22 -.453E+01
   0.309E-12 0.768E-12 -.475E+03   -.497E-13 0.426E-13 0.475E+03   0.000E+00 0.579E-23 -.155E+00
   -.228E+01 0.228E+01 -.474E+03   0.226E+01 -.226E+01 0.474E+03   0.898E-02 -.898E-02 0.318E+00
 -----------------------------------------------------------------------------------------------
   0.261E-10 0.206E-10 0.531E+02   0.204E-12 -.173E-13 0.182E-11   0.278E-16 0.139E-16 -.452E+02


 POSITION                                       TOTAL-FORCE (eV/Angst)
 -----------------------------------------------------------------------------------
      4.22049      4.22049     16.44814        -0.000000      0.000000      1.901089
      4.22049      4.22049     17.59496        -0.000000      0.000000     -1.937965
      0.00000      6.33074      7.50000        -0.000000     -0.000032      0.466584
      2.11025      0.00000      7.50000         0.000032      0.000000      0.466584
      0.00000      0.00000      9.61025        -0.000000      0.000000      0.042637
      2.11025      6.33074      9.61025         0.001654     -0.001654      0.045610
      0.00000      6.33023     11.73368        -0.000000     -0.001636      0.013448
      2.11076      0.00000     11.73368         0.001636      0.000000      0.013448
      0.00000      0.00000     13.83822        -0.000000      0.000000     -0.083346
      2.10905      6.33193     13.83447        -0.008896      0.008896     -0.099366
      0.00000      2.11025      7.50000        -0.000000      0.000032      0.466584
      2.11025      4.22049      7.50000         0.000637      0.000000      0.466784
      0.00000      4.22049      9.61025        -0.000000      0.000000      0.053727
      2.11025      2.11025      9.61025         0.001654      0.001654      0.045610
      0.00000      2.11076     11.73368        -0.000000      0.001636      0.013448
      2.11344      4.22049     11.73659        -0.006411      0.000000      0.026056
      0.00000      4.22049     13.83544        -0.000000      0.000000     -0.091854
      2.10905      2.10905     13.83447        -0.008896     -0.008896     -0.099366
      4.22049      6.33074      7.50000        -0.000000     -0.000637      0.466784
      6.33074      0.00000      7.50000        -0.000032      0.000000      0.466584
      4.22049      0.00000      9.61025        -0.000000      0.000000      0.053727
      6.33074      6.33074      9.61025        -0.001654     -0.001654      0.045610
      4.22049      6.32754     11.73659        -0.000000      0.006411      0.026056
      6.33023      0.00000     11.73368        -0.001636      0.000000      0.013448
      4.22049      0.00000     13.83544        -0.000000      0.000000     -0.091854
      6.33193      6.33193     13.83447         0.008896      0.008896     -0.099366
      4.22049      2.11025      7.50000        -0.000000      0.000637      0.466784
      6.33074      4.22049      7.50000        -0.000637      0.000000      0.466784
      4.22049      4.22049      9.61025        -0.000000      0.000000      0.050448
      6.33074      2.11025      9.61025        -0.001654      0.001654      0.045610
      4.22049      2.11344     11.73659        -0.000000     -0.006411      0.026056
      6.32754      4.22049     11.73659         0.006411      0.000000      0.026056
      4.22049      4.22049     13.87814        -0.000000      0.000000      0.001461
      6.33193      2.10905     13.83447         0.008896     -0.008896     -0.099366
      0.00000      6.33074      9.61025        -0.000000      0.002675      0.057763
      2.11025      0.00000      9.61025        -0.002675      0.000000      0.057763
      0.00000      0.00000      7.50000        -0.000000      0.000000     -0.434862
      2.11025      6.33074      7.50000        -0.000333      0.000333     -0.434720
      0.00000      6.33258     13.88587        -0.000000      0.000562     -0.109395
      2.10840      0.00000     13.88587        -0.000562      0.000000     -0.109395
      0.00000      0.00000     11.72785        -0.000000      0.000000      0.033609
      2.10979      6.33120     11.72890         0.001664     -0.001664      0.026958
      0.00000      2.11025      9.61025        -0.000000     -0.002675      0.057763
      2.11025      4.22049      9.61025         0.010993      0.000000      0.066088
      0.00000      4.22049      7.50000        -0.000000      0.000000     -0.434957
      2.11025      2.11025      7.50000        -0.000333     -0.000333     -0.434720
      0.00000      2.10840     13.88587        -0.000000     -0.000562     -0.109395
      2.10031      4.22049     13.88381         0.023629      0.000000     -0.091720
      0.00000      4.22049     11.72684        -0.000000      0.000000      0.029625
      2.10979      2.10979     11.72890         0.001664      0.001664      0.026958
      4.22049      6.33074      9.61025        -0.000000     -0.010993      0.066088
      6.33074      0.00000      9.61025         0.002675      0.000000      0.057763
      4.22049      0.00000      7.50000        -0.000000      0.000000     -0.434957
      6.33074      6.33074      7.50000         0.000333      0.000333     -0.434720
      4.22049      6.34068     13.88381        -0.000000     -0.023629     -0.091720
      6.33258      0.00000     13.88587         0.000562      0.000000     -0.109395
      4.22049      0.00000     11.72684        -0.000000      0.000000      0.029625
      6.33120      6.33120     11.72890        -0.001664     -0.001664      0.026958
      4.22049      2.11025      9.61025        -0.000000      0.010993      0.066088
      6.33074      4.22049      9.61025        -0.010993      0.000000      0.066088
      4.22049      4.22049      7.50000        -0.000000      0.000000     -0.435211
      6.33074      2.11025      7.50000         0.000333     -0.000333     -0.434720
      4.22049      2.10031     13.88381        -0.000000      0.023629     -0.091720
      6.34068      4.22049     13.88381        -0.023629      0.000000     -0.091720
      4.22049      4.22049     11.73684        -0.000000      0.000000      0.012706
      6.33120      2.10979     11.72890        -0.001664      0.001664      0.026958
 -----------------------------------------------------------------------------------
    total drift:                                0.000000      0.000000      0.005109


--------------------------------------------------------------------------------------------------------



  FREE ENERGIE OF THE ION-ELECTRON SYSTEM (eV)
  ---------------------------------------------------
  free  energy   TOTEN  =      -456.64501194 eV

  energy  without entropy=     -456.64501194  energy(sigma->0) =     -456.64501194



--------------------------------------------------------------------------------------------------------


    POTLOK:  cpu time      0.7883: real time      0.7884


--------------------------------------------------------------------------------------------------------


     LOOP+:  cpu time   7316.6303: real time   7317.9392
    4ORBIT:  cpu time      0.0000: real time      0.0000

 total amount of memory used by VASP MPI-rank0   185308. kBytes
=======================================================================

   base      :      30000. kBytes
   nonl-proj :      14893. kBytes
   fftplans  :       3932. kBytes
   grid      :       3944. kBytes
   one-center:         73. kBytes
   HF        :        101. kBytes
   nonlr-proj:      15028. kBytes
   wavefun   :       4746. kBytes
   fock_wrk  :     112591. kBytes

  
  
 General timing and accounting informations for this job:
 ========================================================
  
                  Total CPU time used (sec):     7346.103
                            User time (sec):     7329.400
                          System time (sec):       16.702
                         Elapsed time (sec):     7358.593
  
                   Maximum memory used (kb):      416784.
                   Average memory used (kb):          N/A
  
                          Minor page faults:       504949
                          Major page faults:           53
                 Voluntary context switches:        16534
