 vasp.6.3.0 20Jan22 (build Apr  1 2022 16:44:48) complex                         
 executed on        HPECrayEX_GCC date 2023.05.17  21:49:32
 running  512 mpi-ranks, with    1 threads/rank
 distrk:  each k-point on  512 cores,    1 groups
 distr:  one band on NCORE=   8 cores,   64 groups


--------------------------------------------------------------------------------------------------------


 INCAR:
   SYSTEM = MgO-rocksalt
   ISMEAR = 0
   SIGMA = 0.05
   EDIFF = 1E-6
   ALGO = ALL
   ISTART = 0
   IBRION = -1
   NSW = 0
   ISYM = 2
   ISIF = 2
   EDIFFG = -0.01
   DIPOL = 0.5 0.5 0.5
   IDIPOL = 3
   LDIPOL = .TRUE.
   LHFCALC = .TRUE.
   GGA = PE
   IVDW = 13
   VDW_S8 = 1.2007
   VDW_A1 = 0.4009
   VDW_A2 = 5.0293
   ENCUT = 600
   PREC = Normal
   LASPH = .TRUE.
   LREAL = .FALSE.
   ISPIN = 1
   NELM = 200
   NELMIN = 8
   NCORE = 8
   KPAR = 1
   LWAVE = .FALSE.
   LCHARG = .FALSE.

 POTCAR:    PAW_PBE C 08Apr2002                   
 POTCAR:    PAW_PBE O 08Apr2002                   
 POTCAR:    PAW_PBE Mg_pv 13Apr2007               
 POTCAR:    PAW_PBE O 08Apr2002                   
 -----------------------------------------------------------------------------
|                                                                             |
|           W    W    AA    RRRRR   N    N  II  N    N   GGGG   !!!           |
|           W    W   A  A   R    R  NN   N  II  NN   N  G    G  !!!           |
|           W    W  A    A  R    R  N N  N  II  N N  N  G       !!!           |
|           W WW W  AAAAAA  RRRRR   N  N N  II  N  N N  G  GGG   !            |
|           WW  WW  A    A  R   R   N   NN  II  N   NN  G    G                |
|           W    W  A    A  R    R  N    N  II  N    N   GGGG   !!!           |
|                                                                             |
|     You have selected ISYM=2 for a HF type calculation. This will           |
|     symmetrize the charge density but not the exchange potential. I         |
|     suggest to use ISYM=3 instead. This uses symmetry to obtain the         |
|     orbitals at all k-points in the Brillouin zone, but does not apply      |
|     symmetry to the Hartree potential directly. The resultant charge        |
|     might have lower symmetry than the crystal but, at least, Hartree       |
|     and exchange are fully compatible.                                      |
|                                                                             |
 -----------------------------------------------------------------------------

 POTCAR:    PAW_PBE C 08Apr2002                   
   SHA256 =  253f7b50bb8d59471dbedb8285d89021f4a42ed1a2c5d38a03a736e69125dd95 C/POTCAR              
   COPYR  = (c) Copyright 08Apr2002 Georg Kresse                                                    
   COPYR  = This file is part of the software VASP. Any use, copying, and all other rights are regul
   COPYR  = If you do not have a valid VASP license, you may not use, copy or distribute this file. 
   VRHFIN =C: s2p2                                                                                  
   LEXCH  = PE                                                                                      
   EATOM  =   147.1560 eV,   10.8157 Ry                                                             
                                                                                                    
   TITEL  = PAW_PBE C 08Apr2002                                                                     
   LULTRA =        F    use ultrasoft PP ?                                                          
   IUNSCR =        1    unscreen: 0-lin 1-nonlin 2-no                                               
   RPACOR =    1.200    partial core radius                                                         
   POMASS =   12.011; ZVAL   =    4.000    mass and valenz                                          
   RCORE  =    1.500    outmost cutoff radius                                                       
   RWIGS  =    1.630; RWIGS  =    0.863    wigner-seitz radius (au A)                               
   ENMAX  =  400.000; ENMIN  =  300.000 eV                                                          
   ICORE  =        2    local potential                                                             
   LCOR   =        T    correct aug charges                                                         
   LPAW   =        T    paw PP                                                                      
   EAUG   =  644.873                                                                                
   DEXC   =    0.000                                                                                
   RMAX   =    1.529    core radius for proj-oper                                                   
   RAUG   =    1.300    factor for augmentation sphere                                              
   RDEP   =    1.501    radius for radial grids                                                     
   RDEPT  =    1.300    core radius for aug-charge                                                  
                                                                                                    
   Atomic configuration                                                                             
    4 entries                                                                                       
     n  l   j            E        occ.                                                              
     1  0  0.50      -273.3789   2.0000                                                             
     2  0  0.50       -13.7508   2.0000                                                             
     2  1  0.50        -5.2854   2.0000                                                             
     3  2  1.50        -5.4423   0.0000                                                             
   Description                                                                                      
     l       E           TYP  RCUT    TYP  RCUT                                                     
     0    -13.7508458     23  1.200                                                                 
     0     -8.2022199     23  1.200                                                                 
     1     -5.2854383     23  1.500                                                                 
     1     34.0145650     23  1.500                                                                 
     2     -5.4423304      7  1.500                                                                 
  local pseudopotential read in
  partial core-charges read in
  partial kinetic energy density read in
  atomic valenz-charges read in
  non local Contribution for L=           0  read in
    real space projection operators read in
  non local Contribution for L=           0  read in
    real space projection operators read in
  non local Contribution for L=           1  read in
    real space projection operators read in
  non local Contribution for L=           1  read in
    real space projection operators read in
    PAW grid and wavefunctions read in

   number of l-projection  operators is LMAX  =           4
   number of lm-projection operators is LMMAX =           8

 POTCAR:    PAW_PBE O 08Apr2002                   
   SHA256 =  818f92134a0a090dccd8ba1447fa70422a3b330e708bb4f08108d8ae51209ddf O/POTCAR              
   COPYR  = (c) Copyright 08Apr2002 Georg Kresse                                                    
   COPYR  = This file is part of the software VASP. Any use, copying, and all other rights are regul
   COPYR  = If you do not have a valid VASP license, you may not use, copy or distribute this file. 
   VRHFIN =O: s2p4                                                                                  
   LEXCH  = PE                                                                                      
   EATOM  =   432.3788 eV,   31.7789 Ry                                                             
                                                                                                    
   TITEL  = PAW_PBE O 08Apr2002                                                                     
   LULTRA =        F    use ultrasoft PP ?                                                          
   IUNSCR =        1    unscreen: 0-lin 1-nonlin 2-no                                               
   RPACOR =    1.200    partial core radius                                                         
   POMASS =   16.000; ZVAL   =    6.000    mass and valenz                                          
   RCORE  =    1.520    outmost cutoff radius                                                       
   RWIGS  =    1.550; RWIGS  =    0.820    wigner-seitz radius (au A)                               
   ENMAX  =  400.000; ENMIN  =  300.000 eV                                                          
   ICORE  =        2    local potential                                                             
   LCOR   =        T    correct aug charges                                                         
   LPAW   =        T    paw PP                                                                      
   EAUG   =  605.392                                                                                
   DEXC   =    0.000                                                                                
   RMAX   =    1.553    core radius for proj-oper                                                   
   RAUG   =    1.300    factor for augmentation sphere                                              
   RDEP   =    1.550    radius for radial grids                                                     
   RDEPT  =    1.329    core radius for aug-charge                                                  
                                                                                                    
   Atomic configuration                                                                             
    4 entries                                                                                       
     n  l   j            E        occ.                                                              
     1  0  0.50      -514.6923   2.0000                                                             
     2  0  0.50       -23.9615   2.0000                                                             
     2  1  0.50        -9.0305   4.0000                                                             
     3  2  1.50        -9.5241   0.0000                                                             
   Description                                                                                      
     l       E           TYP  RCUT    TYP  RCUT                                                     
     0    -23.9615318     23  1.200                                                                 
     0     -9.5240782     23  1.200                                                                 
     1     -9.0304911     23  1.520                                                                 
     1      8.1634956     23  1.520                                                                 
     2     -9.5240782      7  1.500                                                                 
  local pseudopotential read in
  partial core-charges read in
  partial kinetic energy density read in
  kinetic energy density of atom read in
  atomic valenz-charges read in
  non local Contribution for L=           0  read in
    real space projection operators read in
  non local Contribution for L=           0  read in
    real space projection operators read in
  non local Contribution for L=           1  read in
    real space projection operators read in
  non local Contribution for L=           1  read in
    real space projection operators read in
    PAW grid and wavefunctions read in

   number of l-projection  operators is LMAX  =           4
   number of lm-projection operators is LMMAX =           8

 POTCAR:    PAW_PBE Mg_pv 13Apr2007               
   SHA256 =  f474ac0dd33840b9ae76c01d57fea79fdf77cdfbb07d5ade72c65f83c709b62b Mg_pv/POTCAR          
   COPYR  = (c) Copyright 13Apr2007 Georg Kresse                                                    
   COPYR  = This file is part of the software VASP. Any use, copying, and all other rights are regul
   COPYR  = If you do not have a valid VASP license, you may not use, copy or distribute this file. 
   VRHFIN =Mg: p6s2                                                                                 
   LEXCH  = PE                                                                                      
   EATOM  =  1056.7344 eV,   77.6678 Ry                                                             
                                                                                                    
   TITEL  = PAW_PBE Mg_pv 13Apr2007                                                                 
   LULTRA =        F    use ultrasoft PP ?                                                          
   IUNSCR =        1    unscreen: 0-lin 1-nonlin 2-no                                               
   RPACOR =    1.500    partial core radius                                                         
   POMASS =   24.305; ZVAL   =    8.000    mass and valenz                                          
   RCORE  =    2.000    outmost cutoff radius                                                       
   RWIGS  =    2.000; RWIGS  =    1.058    wigner-seitz radius (au A)                               
   ENMAX  =  403.929; ENMIN  =  302.947 eV                                                          
   RCLOC  =    1.506    cutoff for local pot                                                        
   LCOR   =        T    correct aug charges                                                         
   LPAW   =        T    paw PP                                                                      
   EAUG   =  758.780                                                                                
   DEXC   =    0.000                                                                                
   RMAX   =    2.045    core radius for proj-oper                                                   
   RAUG   =    1.300    factor for augmentation sphere                                              
   RDEP   =    2.025    radius for radial grids                                                     
   RDEPT  =    1.557    core radius for aug-charge                                                  
                                                                                                    
   Atomic configuration                                                                             
    5 entries                                                                                       
     n  l   j            E        occ.                                                              
     1  0  0.50     -1259.6230   2.0000                                                             
     2  0  0.50       -79.8442   2.0000                                                             
     2  1  1.50       -46.6121   6.0000                                                             
     3  0  0.50        -4.7055   2.0000                                                             
     3  2  1.50        -1.3606   0.0000                                                             
   Description                                                                                      
     l       E           TYP  RCUT    TYP  RCUT                                                     
     1    -46.6121073     23  1.600                                                                 
     1      2.7211652     23  1.600                                                                 
     0     -4.7054661     23  2.000                                                                 
     0     61.2262170     23  2.000                                                                 
     2     -1.3605826     23  2.000                                                                 
  local pseudopotential read in
  partial core-charges read in
  partial kinetic energy density read in
  atomic valenz-charges read in
  non local Contribution for L=           1  read in
    real space projection operators read in
  non local Contribution for L=           1  read in
    real space projection operators read in
  non local Contribution for L=           0  read in
    real space projection operators read in
  non local Contribution for L=           0  read in
    real space projection operators read in
  non local Contribution for L=           2  read in
    real space projection operators read in
    PAW grid and wavefunctions read in

   number of l-projection  operators is LMAX  =           5
   number of lm-projection operators is LMMAX =          13

 POTCAR:    PAW_PBE O 08Apr2002                   
   SHA256 =  818f92134a0a090dccd8ba1447fa70422a3b330e708bb4f08108d8ae51209ddf O/POTCAR              
   COPYR  = (c) Copyright 08Apr2002 Georg Kresse                                                    
   COPYR  = This file is part of the software VASP. Any use, copying, and all other rights are regul
   COPYR  = If you do not have a valid VASP license, you may not use, copy or distribute this file. 
   VRHFIN =O: s2p4                                                                                  
   LEXCH  = PE                                                                                      
   EATOM  =   432.3788 eV,   31.7789 Ry                                                             
                                                                                                    
   TITEL  = PAW_PBE O 08Apr2002                                                                     
   LULTRA =        F    use ultrasoft PP ?                                                          
   IUNSCR =        1    unscreen: 0-lin 1-nonlin 2-no                                               
   RPACOR =    1.200    partial core radius                                                         
   POMASS =   16.000; ZVAL   =    6.000    mass and valenz                                          
   RCORE  =    1.520    outmost cutoff radius                                                       
   RWIGS  =    1.550; RWIGS  =    0.820    wigner-seitz radius (au A)                               
   ENMAX  =  400.000; ENMIN  =  300.000 eV                                                          
   ICORE  =        2    local potential                                                             
   LCOR   =        T    correct aug charges                                                         
   LPAW   =        T    paw PP                                                                      
   EAUG   =  605.392                                                                                
   DEXC   =    0.000                                                                                
   RMAX   =    1.553    core radius for proj-oper                                                   
   RAUG   =    1.300    factor for augmentation sphere                                              
   RDEP   =    1.550    radius for radial grids                                                     
   RDEPT  =    1.329    core radius for aug-charge                                                  
                                                                                                    
   Atomic configuration                                                                             
    4 entries                                                                                       
     n  l   j            E        occ.                                                              
     1  0  0.50      -514.6923   2.0000                                                             
     2  0  0.50       -23.9615   2.0000                                                             
     2  1  0.50        -9.0305   4.0000                                                             
     3  2  1.50        -9.5241   0.0000                                                             
   Description                                                                                      
     l       E           TYP  RCUT    TYP  RCUT                                                     
     0    -23.9615318     23  1.200                                                                 
     0     -9.5240782     23  1.200                                                                 
     1     -9.0304911     23  1.520                                                                 
     1      8.1634956     23  1.520                                                                 
     2     -9.5240782      7  1.500                                                                 
  local pseudopotential read in
  partial core-charges read in
  partial kinetic energy density read in
  kinetic energy density of atom read in
  atomic valenz-charges read in
  non local Contribution for L=           0  read in
    real space projection operators read in
  non local Contribution for L=           0  read in
    real space projection operators read in
  non local Contribution for L=           1  read in
    real space projection operators read in
  non local Contribution for L=           1  read in
    real space projection operators read in
    PAW grid and wavefunctions read in

   number of l-projection  operators is LMAX  =           4
   number of lm-projection operators is LMMAX =           8

 -----------------------------------------------------------------------------
|                                                                             |
|               ----> ADVICE to this user running VASP <----                  |
|                                                                             |
|     You have a (more or less) 'large supercell' and for larger cells it     |
|     might be more efficient to use real-space projection operators.         |
|     Therefore, try LREAL= Auto in the INCAR file.                           |
|     Mind: For very accurate calculation, you might also keep the            |
|     reciprocal projection scheme (i.e. LREAL=.FALSE.).                      |
|                                                                             |
 -----------------------------------------------------------------------------

  PAW_PBE C 08Apr2002                   :
 energy of atom  1       EATOM= -147.1560
 kinetic energy error for atom=    0.0057 (will be added to EATOM!!)
  PAW_PBE O 08Apr2002                   :
 energy of atom  2       EATOM= -432.3788
 kinetic energy error for atom=    0.0168 (will be added to EATOM!!)
  PAW_PBE Mg_pv 13Apr2007               :
 energy of atom  3       EATOM=-1056.7344
 kinetic energy error for atom=    0.0221 (will be added to EATOM!!)
  PAW_PBE O 08Apr2002                   :
 energy of atom  4       EATOM= -432.3788
 kinetic energy error for atom=    0.0168 (will be added to EATOM!!)


 POSCAR:  C  O Mg  O
  positions in direct lattice
  No initial velocities read in
 -----------------------------------------------------------------------------
|                                                                             |
|           W    W    AA    RRRRR   N    N  II  N    N   GGGG   !!!           |
|           W    W   A  A   R    R  NN   N  II  NN   N  G    G  !!!           |
|           W    W  A    A  R    R  N N  N  II  N N  N  G       !!!           |
|           W WW W  AAAAAA  RRRRR   N  N N  II  N  N N  G  GGG   !            |
|           WW  WW  A    A  R   R   N   NN  II  N   NN  G    G                |
|           W    W  A    A  R    R  N    N  II  N    N   GGGG   !!!           |
|                                                                             |
|     Specifying the vdW parameters                                           |
|     VDW_S8 = 1.201                                                          |
|     VDW_A1 = 0.401                                                          |
|     VDW_A2 = 5.029                                                          |
|     in the INCAR file will overwrite the defaults for pbe0. Please make     |
|     sure that is what you intended.                                         |
|                                                                             |
 -----------------------------------------------------------------------------

 exchange correlation table for  LEXCH =        8
   RHO(1)=    0.500       N(1)  =     2000
   RHO(2)=  100.500       N(2)  =     4000



--------------------------------------------------------------------------------------------------------


 ion  position               nearest neighbor table
   1  0.500  0.500  0.764-   2 1.15
   2  0.500  0.500  0.817-   1 1.15
   3  0.000  0.750  0.352-  35 2.11  37 2.11  38 2.11  45 2.11  54 2.11
   4  0.250  0.000  0.352-  36 2.11  37 2.11  38 2.11  46 2.11  53 2.11
   5  0.000  0.000  0.451-  37 2.11  36 2.11  35 2.11  43 2.11  52 2.11  41 2.12
   6  0.250  0.750  0.451-  38 2.11  36 2.11  35 2.11  44 2.11  51 2.11  42 2.12
   7  0.000  0.750  0.550-  49 2.11  42 2.11  58 2.11  41 2.11  35 2.12  39 2.15
   8  0.250  0.000  0.550-  57 2.11  50 2.11  42 2.11  41 2.11  36 2.12  40 2.15
   9  0.000  0.000  0.649-  39 2.11  40 2.11  47 2.11  56 2.11  41 2.11
  10  0.250  0.750  0.649-  42 2.11  40 2.11  39 2.11  48 2.11  55 2.11
  11  0.000  0.250  0.352-  43 2.11  37 2.11  45 2.11  46 2.11  62 2.11
  12  0.250  0.500  0.352-  44 2.11  38 2.11  45 2.11  46 2.11  61 2.11
  13  0.000  0.500  0.451-  45 2.11  43 2.11  44 2.11  35 2.11  60 2.11  49 2.12
  14  0.250  0.250  0.451-  46 2.11  43 2.11  44 2.11  36 2.11  59 2.11  50 2.12
  15  0.000  0.250  0.550-  49 2.11  50 2.11  66 2.11  41 2.11  43 2.12  47 2.15
  16  0.250  0.500  0.550-  65 2.11  50 2.11  42 2.11  49 2.11  44 2.13  48 2.15
  17  0.000  0.500  0.649-  48 2.10  64 2.10  49 2.11  47 2.11  39 2.11
  18  0.250  0.250  0.649-  50 2.11  47 2.11  40 2.11  48 2.11  63 2.11
  19  0.500  0.750  0.352-  51 2.11  38 2.11  53 2.11  54 2.11  61 2.11
  20  0.750  0.000  0.352-  52 2.11  37 2.11  53 2.11  54 2.11  62 2.11
  21  0.500  0.000  0.451-  53 2.11  51 2.11  52 2.11  36 2.11  59 2.11  57 2.12
  22  0.750  0.750  0.451-  54 2.11  51 2.11  52 2.11  35 2.11  60 2.11  58 2.12
  23  0.500  0.750  0.550-  65 2.11  58 2.11  42 2.11  57 2.11  51 2.13  55 2.15
  24  0.750  0.000  0.550-  57 2.11  58 2.11  66 2.11  41 2.11  52 2.12  56 2.15
  25  0.500  0.000  0.649-  55 2.10  63 2.10  57 2.11  40 2.11  56 2.11
  26  0.750  0.750  0.649-  58 2.11  56 2.11  39 2.11  55 2.11  64 2.11
  27  0.500  0.250  0.352-  59 2.11  53 2.11  46 2.11  61 2.11  62 2.11
  28  0.750  0.500  0.352-  60 2.11  54 2.11  45 2.11  61 2.11  62 2.11
  29  0.500  0.500  0.451-  61 2.11  51 2.11  59 2.11  60 2.11  44 2.11  65 2.13
  30  0.750  0.250  0.451-  62 2.11  52 2.11  59 2.11  60 2.11  43 2.11  66 2.12
  31  0.500  0.250  0.550-  65 2.11  50 2.11  66 2.11  57 2.11  59 2.13  63 2.15
  32  0.750  0.500  0.550-  65 2.11  58 2.11  66 2.11  49 2.11  60 2.13  64 2.15
  33  0.500  0.500  0.651-  48 2.12  55 2.12  63 2.12  64 2.12  65 2.14
  34  0.750  0.250  0.649-  66 2.11  56 2.11  47 2.11  64 2.11  63 2.11
  35  0.000  0.750  0.451-   3 2.11   5 2.11   6 2.11  13 2.11  22 2.11   7 2.12
  36  0.250  0.000  0.451-   4 2.11   5 2.11   6 2.11  14 2.11  21 2.11   8 2.12
  37  0.000  0.000  0.352-   5 2.11   4 2.11   3 2.11  11 2.11  20 2.11
  38  0.250  0.750  0.352-   6 2.11   4 2.11   3 2.11  12 2.11  19 2.11
  39  0.000  0.750  0.651-   9 2.11  10 2.11  26 2.11  17 2.11   7 2.15
  40  0.250  0.000  0.651-   9 2.11  10 2.11  18 2.11  25 2.11   8 2.15
  41  0.000  0.000  0.550-   9 2.11   8 2.11   7 2.11  15 2.11  24 2.11   5 2.12
  42  0.250  0.750  0.550-  10 2.11   8 2.11   7 2.11  16 2.11  23 2.11   6 2.12
  43  0.000  0.250  0.451-  11 2.11   5 2.11  13 2.11  14 2.11  30 2.11  15 2.12
  44  0.250  0.500  0.451-  12 2.11   6 2.11  13 2.11  14 2.11  29 2.11  16 2.13
  45  0.000  0.500  0.352-  13 2.11  11 2.11  12 2.11   3 2.11  28 2.11
  46  0.250  0.250  0.352-  14 2.11  11 2.11  12 2.11   4 2.11  27 2.11
  47  0.000  0.250  0.651-   9 2.11  18 2.11  34 2.11  17 2.11  15 2.15
  48  0.249  0.500  0.651-  17 2.10  10 2.11  18 2.11  33 2.12  16 2.15
  49  0.000  0.500  0.550-  17 2.11  15 2.11   7 2.11  16 2.11  32 2.11  13 2.12
  50  0.250  0.250  0.550-  18 2.11  15 2.11   8 2.11  16 2.11  31 2.11  14 2.12
  51  0.500  0.750  0.451-  19 2.11   6 2.11  21 2.11  22 2.11  29 2.11  23 2.13
  52  0.750  0.000  0.451-  20 2.11   5 2.11  21 2.11  22 2.11  30 2.11  24 2.12
  53  0.500  0.000  0.352-  21 2.11  19 2.11  20 2.11   4 2.11  27 2.11
  54  0.750  0.750  0.352-  22 2.11  19 2.11  20 2.11   3 2.11  28 2.11
  55  0.500  0.751  0.651-  25 2.10  10 2.11  26 2.11  33 2.12  23 2.15
  56  0.750  0.000  0.651-   9 2.11  26 2.11  34 2.11  25 2.11  24 2.15
  57  0.500  0.000  0.550-  25 2.11  24 2.11   8 2.11  23 2.11  31 2.11  21 2.12
  58  0.750  0.750  0.550-  26 2.11  24 2.11   7 2.11  32 2.11  23 2.11  22 2.12
  59  0.500  0.250  0.451-  27 2.11  21 2.11  14 2.11  29 2.11  30 2.11  31 2.13
  60  0.750  0.500  0.451-  28 2.11  22 2.11  13 2.11  29 2.11  30 2.11  32 2.13
  61  0.500  0.500  0.352-  29 2.11  19 2.11  27 2.11  28 2.11  12 2.11
  62  0.750  0.250  0.352-  30 2.11  20 2.11  27 2.11  28 2.11  11 2.11
  63  0.500  0.249  0.651-  25 2.10  18 2.11  34 2.11  33 2.12  31 2.15
  64  0.751  0.500  0.651-  17 2.10  26 2.11  34 2.11  33 2.12  32 2.15
  65  0.500  0.500  0.550-  16 2.11  23 2.11  31 2.11  32 2.11  29 2.13  33 2.14
  66  0.750  0.250  0.550-  34 2.11  24 2.11  15 2.11  32 2.11  31 2.11  30 2.12

  LATTYP: Found a simple tetragonal cell.
 ALAT       =     8.4409846542
 C/A-ratio  =     2.5270438657
  
  Lattice vectors:
  
 A1 = (   8.4409846542,   0.0000000000,   0.0000000000)
 A2 = (   0.0000000000,   8.4409846542,   0.0000000000)
 A3 = (   0.0000000000,   0.0000000000,  21.3307384906)


Analysis of symmetry for initial positions (statically):
=====================================================================
 Subroutine PRICEL returns:
 Original cell was already a primitive cell.
 

 Routine SETGRP: Setting up the symmetry group for a 
 simple tetragonal supercell.


 Subroutine GETGRP returns: Found  8 space group operations
 (whereof  8 operations were pure point group operations)
 out of a pool of 16 trial point group operations.


The static configuration has the point symmetry C_4v.


Analysis of symmetry for dynamics (positions and initial velocities):
=====================================================================
 Subroutine PRICEL returns:
 Original cell was already a primitive cell.
 

 Routine SETGRP: Setting up the symmetry group for a 
 simple tetragonal supercell.


 Subroutine GETGRP returns: Found  8 space group operations
 (whereof  8 operations were pure point group operations)
 out of a pool of 16 trial point group operations.


The dynamic configuration has the point symmetry C_4v.


 Subroutine INISYM returns: Found  8 space group operations
 (whereof  8 operations are pure point group operations),
 and found     1 'primitive' translations


----------------------------------------------------------------------------------------

                                     Primitive cell                                     

  volume of cell :    1519.8199

  direct lattice vectors                    reciprocal lattice vectors
     8.440984654  0.000000000  0.000000000     0.118469591  0.000000000  0.000000000
     0.000000000  8.440984654  0.000000000     0.000000000  0.118469591  0.000000000
     0.000000000  0.000000000 21.330738491     0.000000000  0.000000000  0.046880702

  length of vectors
     8.440984654  8.440984654 21.330738491     0.118469591  0.118469591  0.046880702

  position of ions in fractional coordinates (direct lattice)
     0.500000000  0.500000000  0.763599453
     0.500000000  0.500000000  0.817363171
     0.000000000  0.750000000  0.351605267
     0.250000000  0.000000000  0.351605267
     0.000000000  0.000000000  0.450535089
     0.250000000  0.750000000  0.450535089
     0.000000000  0.749939268  0.550083239
     0.250060732  0.000000000  0.550083239
     0.000000000  0.000000000  0.648745309
     0.249858327  0.750141673  0.648569547
     0.000000000  0.250000000  0.351605267
     0.250000000  0.500000000  0.351605267
     0.000000000  0.500000000  0.450535089
     0.250000000  0.250000000  0.450535089
     0.000000000  0.250060732  0.550083239
     0.250378379  0.500000000  0.550219524
     0.000000000  0.500000000  0.648615280
     0.249858327  0.249858327  0.648569547
     0.500000000  0.750000000  0.351605267
     0.750000000  0.000000000  0.351605267
     0.500000000  0.000000000  0.450535089
     0.750000000  0.750000000  0.450535089
     0.500000000  0.749621621  0.550219524
     0.749939268  0.000000000  0.550083239
     0.500000000  0.000000000  0.648615280
     0.750141673  0.750141673  0.648569547
     0.500000000  0.250000000  0.351605267
     0.750000000  0.500000000  0.351605267
     0.500000000  0.500000000  0.450535089
     0.750000000  0.250000000  0.450535089
     0.500000000  0.250378379  0.550219524
     0.749621621  0.500000000  0.550219524
     0.500000000  0.500000000  0.650616960
     0.750141673  0.249858327  0.648569547
     0.000000000  0.750000000  0.450535089
     0.250000000  0.000000000  0.450535089
     0.000000000  0.000000000  0.351605267
     0.250000000  0.750000000  0.351605267
     0.000000000  0.750218533  0.650979255
     0.249781467  0.000000000  0.650979255
     0.000000000  0.000000000  0.549809890
     0.249945770  0.750054230  0.549859113
     0.000000000  0.250000000  0.450535089
     0.250000000  0.500000000  0.450535089
     0.000000000  0.500000000  0.351605267
     0.250000000  0.250000000  0.351605267
     0.000000000  0.249781467  0.650979255
     0.248822710  0.500000000  0.650882872
     0.000000000  0.500000000  0.549762666
     0.249945770  0.249945770  0.549859113
     0.500000000  0.750000000  0.450535089
     0.750000000  0.000000000  0.450535089
     0.500000000  0.000000000  0.351605267
     0.750000000  0.750000000  0.351605267
     0.500000000  0.751177290  0.650882872
     0.750218533  0.000000000  0.650979255
     0.500000000  0.000000000  0.549762666
     0.750054230  0.750054230  0.549859113
     0.500000000  0.250000000  0.450535089
     0.750000000  0.500000000  0.450535089
     0.500000000  0.500000000  0.351605267
     0.750000000  0.250000000  0.351605267
     0.500000000  0.248822710  0.650882872
     0.751177290  0.500000000  0.650882872
     0.500000000  0.500000000  0.550231357
     0.750054230  0.249945770  0.549859113

  ion indices of the primitive-cell ions
   primitive index   ion index
                 1           1
                 2           2
                 3           3
                 4           4
                 5           5
                 6           6
                 7           7
                 8           8
                 9           9
                10          10
                11          11
                12          12
                13          13
                14          14
                15          15
                16          16
                17          17
                18          18
                19          19
                20          20
                21          21
                22          22
                23          23
                24          24
                25          25
                26          26
                27          27
                28          28
                29          29
                30          30
                31          31
                32          32
                33          33
                34          34
                35          35
                36          36
                37          37
                38          38
                39          39
                40          40
                41          41
                42          42
                43          43
                44          44
                45          45
                46          46
                47          47
                48          48
                49          49
                50          50
                51          51
                52          52
                53          53
                54          54
                55          55
                56          56
                57          57
                58          58
                59          59
                60          60
                61          61
                62          62
                63          63
                64          64
                65          65
                66          66

----------------------------------------------------------------------------------------



 KPOINTS: pymatgen v2020.8.13 with grid density = 

Automatic generation of k-mesh.
 Grid dimensions read from file:
 generate k-points for:    2    2    1

 Generating k-lattice:

  Cartesian coordinates                     Fractional coordinates (reciprocal lattice)
     0.059234796  0.000000000  0.000000000     0.500000000  0.000000000  0.000000000
     0.000000000  0.059234796  0.000000000     0.000000000  0.500000000  0.000000000
     0.000000000  0.000000000  0.046880702     0.000000000  0.000000000  1.000000000

  Length of vectors
     0.059234796  0.059234796  0.046880702

  Shift w.r.t. Gamma in fractional coordinates (k-lattice)
     0.000000000  0.000000000  0.000000000

 
 Subroutine IBZKPT returns following result:
 ===========================================
 
 Found      3 irreducible k-points:
 
 Following reciprocal coordinates:
            Coordinates               Weight
  0.000000  0.000000  0.000000      1.000000
  0.500000  0.000000  0.000000      2.000000
  0.500000  0.500000  0.000000      1.000000
 
 Following cartesian coordinates:
            Coordinates               Weight
  0.000000  0.000000  0.000000      1.000000
  0.059235  0.000000  0.000000      2.000000
  0.059235  0.059235  0.000000      1.000000
 
 
 Subroutine IBZKPT_HF returns following result:
 ==============================================
 
 Found      4 k-points in 1st BZ
 the following      4 k-points will be used (e.g. in the exchange kernel)
 Following reciprocal coordinates:   # in IRBZ
  0.000000  0.000000  0.000000    0.25000000   1 t-inv F
  0.500000  0.000000  0.000000    0.25000000   2 t-inv F
  0.500000  0.500000  0.000000    0.25000000   3 t-inv F
 -0.000000  0.500000  0.000000    0.25000000   2 t-inv F


--------------------------------------------------------------------------------------------------------




 Dimension of arrays:
   k-points           NKPTS =      3   k-points in BZ     NKDIM =      4   number of bands    NBANDS=    320
   number of dos      NEDOS =    301   number of ions     NIONS =     66
   non local maximal  LDIM  =      5   non local SUM 2l+1 LMDIM =     13
   total plane-waves  NPLWV = 373248
   max r-space proj   IRMAX =      1   max aug-charges    IRDMAX=   5039
   dimension x,y,z NGX =    54 NGY =   54 NGZ =  128
   dimension x,y,z NGXF=   108 NGYF=  108 NGZF=  256
   support grid    NGXF=   108 NGYF=  108 NGZF=  256
   ions per type =               1   1  32  32
   NGX,Y,Z   is equivalent  to a cutoff of  10.64, 10.64,  9.98 a.u.
   NGXF,Y,Z  is equivalent  to a cutoff of  21.27, 21.27, 19.95 a.u.

 SYSTEM =  MgO-rocksalt                            
 POSCAR =   C  O Mg  O                             

 Startparameter for this run:
   NWRITE =      2    write-flag & timer
   PREC   = normal    normal or accurate (medium, high low for compatibility)
   ISTART =      0    job   : 0-new  1-cont  2-samecut
   ICHARG =      2    charge: 1-file 2-atom 10-const
   ISPIN  =      1    spin polarized calculation?
   LNONCOLLINEAR =      F non collinear calculations
   LSORBIT =      F    spin-orbit coupling
   INIWAV =      1    electr: 0-lowe 1-rand  2-diag
   LASPH  =      T    aspherical Exc in radial PAW
 Electronic Relaxation 1
   ENCUT  =  600.0 eV  44.10 Ry    6.64 a.u.  16.86 16.86 42.60*2*pi/ulx,y,z
   ENINI  =  600.0     initial cutoff
   ENAUG  =  758.8 eV  augmentation charge cutoff
   NELM   =    200;   NELMIN=  8; NELMDL= -5     # of ELM steps 
   EDIFF  = 0.1E-05   stopping-criterion for ELM
   LREAL  =      F    real-space projection
   NLSPLINE    = F    spline interpolate recip. space projectors
   LCOMPAT=      F    compatible to vasp.4.4
   GGA_COMPAT  = T    GGA compatible to vasp.4.4-vasp.4.6
   LMAXPAW     = -100 max onsite density
   LMAXMIX     =    2 max onsite mixed and CHGCAR
   VOSKOWN=      0    Vosko Wilk Nusair interpolation
   ROPT   =    0.00000   0.00000   0.00000   0.00000
 Ionic relaxation
   EDIFFG = -.1E-01   stopping-criterion for IOM
   NSW    =      0    number of steps for IOM
   NBLOCK =      1;   KBLOCK =      1    inner block; outer block 
   IBRION =     -1    ionic relax: 0-MD 1-quasi-New 2-CG
   NFREE  =      0    steps in history (QN), initial steepest desc. (CG)
   ISIF   =      2    stress and relaxation
   IWAVPR =     10    prediction:  0-non 1-charg 2-wave 3-comb
   ISYM   =      2    0-nonsym 1-usesym 2-fastsym
   LCORR  =      T    Harris-Foulkes like correction to forces

   POTIM  = 0.5000    time-step for ionic-motion
   TEIN   =    0.0    initial temperature
   TEBEG  =    0.0;   TEEND  =   0.0 temperature during run
   SMASS  =  -3.00    Nose mass-parameter (am)
   estimated Nose-frequenzy (Omega)   =  0.10E-29 period in steps = 0.13E+47 mass=  -0.163E-26a.u.
   SCALEE = 1.0000    scale energy and forces
   NPACO  =    256;   APACO  = 10.0  distance and # of slots for P.C.
   PSTRESS=    0.0 pullay stress

  Mass of Ions in am
   POMASS =  12.01 16.00 24.30 16.00
  Ionic Valenz
   ZVAL   =   4.00  6.00  8.00  6.00
  Atomic Wigner-Seitz radii
   RWIGS  =  -1.00 -1.00 -1.00 -1.00
  virtual crystal weights 
   VCA    =   1.00  1.00  1.00  1.00
   NELECT =     458.0000    total number of electrons
   NUPDOWN=      -1.0000    fix difference up-down

 DOS related values:
   EMIN   =  10.00;   EMAX   =-10.00  energy-range for DOS
   EFERMI =   0.00
   ISMEAR =     0;   SIGMA  =   0.05  broadening in eV -4-tet -1-fermi 0-gaus

 Electronic relaxation 2 (details)
   IALGO  =     58    algorithm
   LDIAG  =      T    sub-space diagonalisation (order eigenvalues)
   LSUBROT=      F    optimize rotation matrix (better conditioning)
   TURBO    =      0    0=normal 1=particle mesh
   IRESTART =      0    0=no restart 2=restart with 2 vectors
   NREBOOT  =      0    no. of reboots
   NMIN     =      0    reboot dimension
   EREF     =   0.00    reference energy to select bands
   IMIX   =      4    mixing-type and parameters
     AMIX     =   0.40;   BMIX     =  1.00
     AMIX_MAG =   1.60;   BMIX_MAG =  1.00
     AMIN     =   0.10
     WC   =   100.;   INIMIX=   1;  MIXPRE=   1;  MAXMIX= -45

 Intra band minimization:
   WEIMIN = 0.0000     energy-eigenvalue tresh-hold
   EBREAK =  0.78E-09  absolut break condition
   DEPER  =   0.30     relativ break condition  

   TIME   =   0.40     timestep for ELM

  volume/ion in A,a.u.               =      23.03       155.40
  Fermi-wavevector in a.u.,A,eV,Ry     =   1.097571  2.074108 16.390423  1.204662
  Thomas-Fermi vector in A             =   2.233933

 Write flags
   LWAVE        =      F    write WAVECAR
   LDOWNSAMPLE  =      F    k-point downsampling of WAVECAR
   LCHARG       =      F    write CHGCAR
   LVTOT        =      F    write LOCPOT, total local potential
   LVHAR        =      F    write LOCPOT, Hartree potential only
   LELF         =      F    write electronic localiz. function (ELF)
   LORBIT       =      0    0 simple, 1 ext, 2 COOP (PROOUT), +10 PAW based schemes


 Dipole corrections
   LMONO  =      F    monopole corrections only (constant potential shift)
   LDIPOL =      T    correct potential (dipole corrections)
   IDIPOL =      3    1-x, 2-y, 3-z, 4-all directions 
   EPSILON=  1.0000000 bulk dielectric constant

 Exchange correlation treatment:
   GGA     =    PE    GGA type
   LEXCH   =     8    internal setting for exchange type
   LIBXC   =     F    Libxc                    
   VOSKOWN =     0    Vosko Wilk Nusair interpolation
   EXXOEP  =     0    0=HF, 1=EXX-LHF (local Hartree Fock) 2=EXX OEP
   LHFCALC =     T    Hartree Fock is set to
   LSYMGRAD=     F    symmetrize gradient (conserves proper symmetry)
   PRECFOCK=normal    Normal, Fast or Accurate (Low or Medium for compatibility)
   LRHFCALC=     F    long range Hartree Fock
   LRSCOR  =     F    long range correlation only (use DFT for short range part)
   LTHOMAS =     F    Thomas Fermi screening in HF
   LMODELHF=     F    short range full HF, long range fraction AEXX
   LFOCKACE=     T    use Adeptively-Compressed-Exchange operator
   ENCUT4O =  -1.0   cutoff for four orbital integrals eV
   LMAXFOCK=     4    L truncation for augmentation on plane wave grid
   LMAXFOCKAE=  -1    L truncation for all-electron charge restoration on plane wave grid
   NMAXFOCKAE=   1    number of basis functions for all-electron charge restoration
   LFOCKAEDFT=     F  apply the AE augmentation even for DFT
   NKREDX  =     1    reduce k-point grid by
   NKREDY  =     1    reduce k-point grid by
   NKREDZ  =     1    reduce k-point grid by
   SHIFTRED=     F    shift reduced grid of Gamma
   HFKIDENT=     F    idential grid for each k-point
   ODDONLY =     F    use only odd q-grid points
   EVENONLY=     F    use only even q-grid points
   HFALPHA =   -1.0000 decay constant for conv. correction
   MCALPHA =    0.0000 extent of test-charge in conv. correction in multipole expansion
   AEXX    =    0.2500 exact exchange contribution
   HFSCREEN=    0.0000 screening length (either q_TF or 0.3 A-1)
   HFSCREENC=   0.0000 screening length for correlation (either q_TF or 0.3 A-1)
   HFRCUT  =    0.0000 spherical cutoff for potential kernel
   ALDAX   =    0.7500 LDA exchange part
   AGGAX   =    0.7500 GGA exchange part
   ALDAC   =    1.0000 LDA correlation
   AGGAC   =    1.0000 GGA correlation
   ENCUTFOCK=  -1.0 apply spherical cutoff to Coloumb kernel
   NBANDSGWLOW=     1    first orbital included in HF term
   NBLOCK_FOCK=    64    blocking factor in FOCK_ACC

 Linear response parameters
   LEPSILON=     F    determine dielectric tensor
   LRPA    =     F    only Hartree local field effects (RPA)
   LNABLA  =     F    use nabla operator in PAW spheres
   LVEL    =     F    velocity operator in full k-point grid
   CSHIFT  =0.1000    complex shift for real part using Kramers Kronig
   OMEGAMAX=  -1.0    maximum frequency
   DEG_THRESHOLD= 0.2000000E-02 threshold for treating states as degnerate
   RTIME   =   -0.100 relaxation time in fs
  (WPLASMAI=    0.000 imaginary part of plasma frequency in eV, 0.658/RTIME)
   DFIELD  = 0.0000000 0.0000000 0.0000000 field for delta impulse in time

  Optional k-point grid parameters
   LKPOINTS_OPT  =     F    use optional k-point grid
   KPOINTS_OPT_MODE=     1    mode for optional k-point grid

 Orbital magnetization related:
   ORBITALMAG=     F  switch on orbital magnetization
   LCHIMAG   =     F  perturbation theory with respect to B field
   DQ        =  0.001000  dq finite difference perturbation B field
   LLRAUG    =     F  two centre corrections for induced B field



--------------------------------------------------------------------------------------------------------


 Static calculation
 charge density and potential will be updated during run
 non-spin polarized calculation
 Conjugate gradient for all bands (Freysoldt, et al. PRB 79, 241103 (2009))
 preconditioned conjugated gradient                                        
 perform sub-space diagonalisation
    before iterative eigenvector-optimisation
 modified Broyden-mixing scheme, WC =      100.0
 initial mixing is a Kerker type mixing with AMIX =  0.4000 and BMIX =      1.0000
 Hartree-type preconditioning will be used
 using additional bands           91
 reciprocal scheme for non local part
 use partial core corrections
 no Harris-corrections to forces 
 use gradient corrections 
 use of overlap-Matrix (Vanderbilt PP)
 Gauss-broadening in eV      SIGMA  =   0.05


--------------------------------------------------------------------------------------------------------


  energy-cutoff  :      600.00
  volume of cell :     1519.82
      direct lattice vectors                 reciprocal lattice vectors
     8.440984654  0.000000000  0.000000000     0.118469591  0.000000000  0.000000000
     0.000000000  8.440984654  0.000000000     0.000000000  0.118469591  0.000000000
     0.000000000  0.000000000 21.330738491     0.000000000  0.000000000  0.046880702

  length of vectors
     8.440984654  8.440984654 21.330738491     0.118469591  0.118469591  0.046880702



 k-points in units of 2pi/SCALE and weight: pymatgen v2020.8.13 with grid density = 
   0.00000000  0.00000000  0.00000000       0.250
   0.05923480  0.00000000  0.00000000       0.500
   0.05923480  0.05923480  0.00000000       0.250

 k-points in reciprocal lattice and weights: pymatgen v2020.8.13 with grid density = 
   0.00000000  0.00000000  0.00000000       0.250
   0.50000000  0.00000000  0.00000000       0.500
   0.50000000  0.50000000  0.00000000       0.250

 position of ions in fractional coordinates (direct lattice) 
   0.50000000  0.50000000  0.76359945
   0.50000000  0.50000000  0.81736317
   0.00000000  0.75000000  0.35160527
   0.25000000  0.00000000  0.35160527
   0.00000000  0.00000000  0.45053509
   0.25000000  0.75000000  0.45053509
   0.00000000  0.74993927  0.55008324
   0.25006073  0.00000000  0.55008324
   0.00000000  0.00000000  0.64874531
   0.24985833  0.75014167  0.64856955
   0.00000000  0.25000000  0.35160527
   0.25000000  0.50000000  0.35160527
   0.00000000  0.50000000  0.45053509
   0.25000000  0.25000000  0.45053509
   0.00000000  0.25006073  0.55008324
   0.25037838  0.50000000  0.55021952
   0.00000000  0.50000000  0.64861528
   0.24985833  0.24985833  0.64856955
   0.50000000  0.75000000  0.35160527
   0.75000000  0.00000000  0.35160527
   0.50000000  0.00000000  0.45053509
   0.75000000  0.75000000  0.45053509
   0.50000000  0.74962162  0.55021952
   0.74993927  0.00000000  0.55008324
   0.50000000  0.00000000  0.64861528
   0.75014167  0.75014167  0.64856955
   0.50000000  0.25000000  0.35160527
   0.75000000  0.50000000  0.35160527
   0.50000000  0.50000000  0.45053509
   0.75000000  0.25000000  0.45053509
   0.50000000  0.25037838  0.55021952
   0.74962162  0.50000000  0.55021952
   0.50000000  0.50000000  0.65061696
   0.75014167  0.24985833  0.64856955
   0.00000000  0.75000000  0.45053509
   0.25000000  0.00000000  0.45053509
   0.00000000  0.00000000  0.35160527
   0.25000000  0.75000000  0.35160527
   0.00000000  0.75021853  0.65097926
   0.24978147  0.00000000  0.65097926
   0.00000000  0.00000000  0.54980989
   0.24994577  0.75005423  0.54985911
   0.00000000  0.25000000  0.45053509
   0.25000000  0.50000000  0.45053509
   0.00000000  0.50000000  0.35160527
   0.25000000  0.25000000  0.35160527
   0.00000000  0.24978147  0.65097926
   0.24882271  0.50000000  0.65088287
   0.00000000  0.50000000  0.54976267
   0.24994577  0.24994577  0.54985911
   0.50000000  0.75000000  0.45053509
   0.75000000  0.00000000  0.45053509
   0.50000000  0.00000000  0.35160527
   0.75000000  0.75000000  0.35160527
   0.50000000  0.75117729  0.65088287
   0.75021853  0.00000000  0.65097926
   0.50000000  0.00000000  0.54976267
   0.75005423  0.75005423  0.54985911
   0.50000000  0.25000000  0.45053509
   0.75000000  0.50000000  0.45053509
   0.50000000  0.50000000  0.35160527
   0.75000000  0.25000000  0.35160527
   0.50000000  0.24882271  0.65088287
   0.75117729  0.50000000  0.65088287
   0.50000000  0.50000000  0.55023136
   0.75005423  0.24994577  0.54985911

 position of ions in cartesian coordinates  (Angst):
   4.22049233  4.22049233 16.28814023
   4.22049233  4.22049233 17.43496005
   0.00000000  6.33073849  7.50000000
   2.11024616  0.00000000  7.50000000
   0.00000000  0.00000000  9.61024616
   2.11024616  6.33073849  9.61024616
   0.00000000  6.33022585 11.73368172
   2.11075880  0.00000000 11.73368172
   0.00000000  0.00000000 13.83821654
   2.10905031  6.33193435 13.83446740
   0.00000000  2.11024616  7.50000000
   2.11024616  4.22049233  7.50000000
   0.00000000  4.22049233  9.61024616
   2.11024616  2.11024616  9.61024616
   0.00000000  2.11075880 11.73368172
   2.11344006  4.22049233 11.73658877
   0.00000000  4.22049233 13.83544293
   2.10905031  2.10905031 13.83446740
   4.22049233  6.33073849  7.50000000
   6.33073849  0.00000000  7.50000000
   4.22049233  0.00000000  9.61024616
   6.33073849  6.33073849  9.61024616
   4.22049233  6.32754460 11.73658877
   6.33022585  0.00000000 11.73368172
   4.22049233  0.00000000 13.83544293
   6.33193435  6.33193435 13.83446740
   4.22049233  2.11024616  7.50000000
   6.33073849  4.22049233  7.50000000
   4.22049233  4.22049233  9.61024616
   6.33073849  2.11024616  9.61024616
   4.22049233  2.11344006 11.73658877
   6.32754460  4.22049233 11.73658877
   4.22049233  4.22049233 13.87814023
   6.33193435  2.10905031 13.83446740
   0.00000000  6.33073849  9.61024616
   2.11024616  0.00000000  9.61024616
   0.00000000  0.00000000  7.50000000
   2.11024616  6.33073849  7.50000000
   0.00000000  6.33258312 13.88586825
   2.10840153  0.00000000 13.88586825
   0.00000000  0.00000000 11.72785099
   2.10978841  6.33119624 11.72890095
   0.00000000  2.11024616  9.61024616
   2.11024616  4.22049233  9.61024616
   0.00000000  4.22049233  7.50000000
   2.11024616  2.11024616  7.50000000
   0.00000000  2.10840153 13.88586825
   2.10030867  4.22049233 13.88381232
   0.00000000  4.22049233 11.72684365
   2.10978841  2.10978841 11.72890095
   4.22049233  6.33073849  9.61024616
   6.33073849  0.00000000  9.61024616
   4.22049233  0.00000000  7.50000000
   6.33073849  6.33073849  7.50000000
   4.22049233  6.34067598 13.88381232
   6.33258312  0.00000000 13.88586825
   4.22049233  0.00000000 11.72684365
   6.33119624  6.33119624 11.72890095
   4.22049233  2.11024616  9.61024616
   6.33073849  4.22049233  9.61024616
   4.22049233  4.22049233  7.50000000
   6.33073849  2.11024616  7.50000000
   4.22049233  2.10030867 13.88381232
   6.34067598  4.22049233 13.88381232
   4.22049233  4.22049233 11.73684118
   6.33119624  2.10978841 11.72890095



--------------------------------------------------------------------------------------------------------


 k-point   1 :   0.0000 0.0000 0.0000  plane waves:   50745
 k-point   2 :   0.5000 0.0000 0.0000  plane waves:   50798
 k-point   3 :   0.5000 0.5000 0.0000  plane waves:   50752

 maximum and minimum number of plane-waves per node :      6394     6276

 maximum number of plane-waves:     50798
 maximum index in each direction: 
   IXMAX=   16   IYMAX=   16   IZMAX=   42
   IXMIN=  -17   IYMIN=  -17   IZMIN=  -42


 parallel 3D FFT for wavefunctions:
    minimum data exchange during FFTs selected (reduces bandwidth)
 parallel 3D FFT for charge:
    minimum data exchange during FFTs selected (reduces bandwidth)


 Radii for the augmentation spheres in the non-local exchange
 for species   1 augmentation radius   0.874 (default was   0.699)
       energy cutoff for augmentation   2400.0
 for species   2 augmentation radius   0.902 (default was   0.722)
       energy cutoff for augmentation   2400.0
 for species   3 augmentation radius   1.037 (default was   0.829)
       energy cutoff for augmentation   2400.0
 for species   4 augmentation radius   0.902 (default was   0.722)
       energy cutoff for augmentation   2400.0

 real space projection operators:
  total allocation   :       8963.93 KBytes
  max/ min on nodes  :       1251.41        828.03

 Maximum index for augmentation-charges in exchange          164
  SETUP_FOCK is finished

 total amount of memory used by VASP MPI-rank0    60468. kBytes
=======================================================================

   base      :      30000. kBytes
   nonl-proj :      14893. kBytes
   fftplans  :       3932. kBytes
   grid      :       3944. kBytes
   one-center:         73. kBytes
   HF        :        101. kBytes
   nonlr-proj:       2779. kBytes
   wavefun   :       4746. kBytes

     INWAV:  cpu time      0.0001: real time      0.0003
 Broyden mixing: mesh for mixing (old mesh)
   NGX = 33   NGY = 33   NGZ = 85
  (NGX  =108   NGY  =108   NGZ  =256)
  gives a total of  92565 points

 initial charge density was supplied:
 charge density of overlapping atoms calculated
 number of electron     458.0000000 magnetization 
 keeping initial charge density in first step


--------------------------------------------------------------------------------------------------------


 Maximum index for augmentation-charges          334 (set IRDMAX)


--------------------------------------------------------------------------------------------------------


    FEWALD:  cpu time      0.0027: real time      0.0028


--------------------------------------- Iteration      1(   1)  ---------------------------------------


    POTLOK:  cpu time      0.0653: real time      0.0662
    SETDIJ:  cpu time      0.1912: real time      0.1912
    TRIAL :  cpu time     18.6616: real time     18.7585
    CORREC:  cpu time      0.0011: real time      0.0011
    --------------------------------------------
      LOOP:  cpu time     18.9208: real time     19.0525

 eigenvalue-minimisations  :  2304
 total energy-change (2. order) : 0.5645273E+03  (-0.3099712E+05)
 number of electron     458.0000000 magnetization 
 augmentation part      458.0000000 magnetization 

 DIPCOR: dipole corrections for dipol
 direction  3 min pos     1,
 dipolmoment           0.000000      0.000000     -0.000248 electrons x Angstroem
 Tr[quadrupol]     -6318.707340

 energy correction for charged system         0.000000 eV
 dipol+quadrupol energy correction           -0.000000 eV
 added-field ion interaction          0.002003 eV  (added to PSCEN)


 Free energy of the ion-electron system (eV)
  ---------------------------------------------------
  alpha Z        PSCENC =       907.96610674
  Ewald energy   TEWEN  =    137215.36367639
  -Hartree energ DENC   =   -173314.00454123
  -exchange      EXHF   =         0.00000000
  -V(xc)+E(xc)   XCENC  =      1789.22762488
  PAW double counting   =     32310.01086261   -39107.06083553
  entropy T*S    EENTRO =        -0.01506195
  eigenvalues    EBANDS =     -7344.48141004
  atomic energy  EATOM  =     48107.52088990
  ---------------------------------------------------
  free energy    TOTEN  =       564.52731175 eV

  energy without entropy =      564.54237371  energy(sigma->0) =      564.53484273
  exchange ACFDT corr.  =         0.00000000  see jH, gK, PRB 81, 115126


--------------------------------------------------------------------------------------------------------




--------------------------------------- Iteration      1(   2)  ---------------------------------------


    TRIAL :  cpu time      2.8237: real time      2.8241
    CORREC:  cpu time      0.0003: real time      0.0003
    --------------------------------------------
      LOOP:  cpu time      2.8289: real time      2.8395

 eigenvalue-minimisations  :  2304
 total energy-change (2. order) :-0.4308027E+04  (-0.4235908E+04)
 number of electron     458.0000000 magnetization 
 augmentation part      458.0000000 magnetization 

 DIPCOR: dipole corrections for dipol
 direction  3 min pos     1,
 dipolmoment           0.000000      0.000000     -0.000248 electrons x Angstroem
 Tr[quadrupol]     -6318.707340

 energy correction for charged system         0.000000 eV
 dipol+quadrupol energy correction           -0.000000 eV
 added-field ion interaction          0.002003 eV  (added to PSCEN)


 Free energy of the ion-electron system (eV)
  ---------------------------------------------------
  alpha Z        PSCENC =       907.96610674
  Ewald energy   TEWEN  =    137215.36367639
  -Hartree energ DENC   =   -173314.00454123
  -exchange      EXHF   =         0.00000000
  -V(xc)+E(xc)   XCENC  =      1789.22762488
  PAW double counting   =     32310.01086261   -39107.06083553
  entropy T*S    EENTRO =        -0.00000000
  eigenvalues    EBANDS =    -11652.52364787
  atomic energy  EATOM  =     48107.52088990
  ---------------------------------------------------
  free energy    TOTEN  =     -3743.49986413 eV

  energy without entropy =    -3743.49986413  energy(sigma->0) =    -3743.49986413
  exchange ACFDT corr.  =         0.00000000  see jH, gK, PRB 81, 115126


--------------------------------------------------------------------------------------------------------




--------------------------------------- Iteration      1(   3)  ---------------------------------------


    TRIAL :  cpu time      3.0043: real time      3.0048
    CORREC:  cpu time      0.0003: real time      0.0003
    --------------------------------------------
      LOOP:  cpu time      3.0098: real time      3.0191

 eigenvalue-minimisations  :  2304
 total energy-change (2. order) :-0.3176451E+03  (-0.3154812E+03)
 number of electron     458.0000000 magnetization 
 augmentation part      458.0000000 magnetization 

 DIPCOR: dipole corrections for dipol
 direction  3 min pos     1,
 dipolmoment           0.000000      0.000000     -0.000248 electrons x Angstroem
 Tr[quadrupol]     -6318.707340

 energy correction for charged system         0.000000 eV
 dipol+quadrupol energy correction           -0.000000 eV
 added-field ion interaction          0.002003 eV  (added to PSCEN)


 Free energy of the ion-electron system (eV)
  ---------------------------------------------------
  alpha Z        PSCENC =       907.96610674
  Ewald energy   TEWEN  =    137215.36367639
  -Hartree energ DENC   =   -173314.00454123
  -exchange      EXHF   =         0.00000000
  -V(xc)+E(xc)   XCENC  =      1789.22762488
  PAW double counting   =     32310.01086261   -39107.06083553
  entropy T*S    EENTRO =        -0.00000000
  eigenvalues    EBANDS =    -11970.16873148
  atomic energy  EATOM  =     48107.52088990
  ---------------------------------------------------
  free energy    TOTEN  =     -4061.14494774 eV

  energy without entropy =    -4061.14494774  energy(sigma->0) =    -4061.14494774
  exchange ACFDT corr.  =         0.00000000  see jH, gK, PRB 81, 115126


--------------------------------------------------------------------------------------------------------




--------------------------------------- Iteration      1(   4)  ---------------------------------------


    TRIAL :  cpu time      3.1364: real time      3.1366
    CORREC:  cpu time      0.0003: real time      0.0003
    --------------------------------------------
      LOOP:  cpu time      3.1513: real time      3.1518

 eigenvalue-minimisations  :  2368
 total energy-change (2. order) :-0.6218880E+01  (-0.6211998E+01)
 number of electron     458.0000000 magnetization 
 augmentation part      458.0000000 magnetization 

 DIPCOR: dipole corrections for dipol
 direction  3 min pos     1,
 dipolmoment           0.000000      0.000000     -0.000248 electrons x Angstroem
 Tr[quadrupol]     -6318.707340

 energy correction for charged system         0.000000 eV
 dipol+quadrupol energy correction           -0.000000 eV
 added-field ion interaction          0.002003 eV  (added to PSCEN)


 Free energy of the ion-electron system (eV)
  ---------------------------------------------------
  alpha Z        PSCENC =       907.96610674
  Ewald energy   TEWEN  =    137215.36367639
  -Hartree energ DENC   =   -173314.00454123
  -exchange      EXHF   =         0.00000000
  -V(xc)+E(xc)   XCENC  =      1789.22762488
  PAW double counting   =     32310.01086261   -39107.06083553
  entropy T*S    EENTRO =        -0.00000000
  eigenvalues    EBANDS =    -11976.38761180
  atomic energy  EATOM  =     48107.52088990
  ---------------------------------------------------
  free energy    TOTEN  =     -4067.36382805 eV

  energy without entropy =    -4067.36382805  energy(sigma->0) =    -4067.36382805
  exchange ACFDT corr.  =         0.00000000  see jH, gK, PRB 81, 115126


--------------------------------------------------------------------------------------------------------




--------------------------------------- Iteration      1(   5)  ---------------------------------------


    POTLOK:  cpu time      0.0435: real time      0.0435
    SETDIJ:  cpu time      0.1887: real time      0.1887
    TRIAL :  cpu time     71.7924: real time     71.7998
    CORREC:  cpu time      0.0003: real time      0.0003
    CHARGE:  cpu time      0.0659: real time      0.0663
    --------------------------------------------
      LOOP:  cpu time     72.0958: real time     72.1128

 eigenvalue-minimisations  :  2304
 total energy-change (2. order) : 0.3506844E+04  (-0.2334793E+01)
 number of electron     457.9999381 magnetization 
 augmentation part      160.4800740 magnetization 

 DIPCOR: dipole corrections for dipol
 direction  3 min pos     1,
 dipolmoment           0.000000      0.000000     -0.000248 electrons x Angstroem
 Tr[quadrupol]     -6318.707340

 energy correction for charged system         0.000000 eV
 dipol+quadrupol energy correction           -0.000000 eV
 added-field ion interaction          0.002003 eV  (added to PSCEN)


 Free energy of the ion-electron system (eV)
  ---------------------------------------------------
  alpha Z        PSCENC =       907.96610674
  Ewald energy   TEWEN  =    137215.36367639
  -Hartree energ DENC   =   -173314.00454123
  -exchange      EXHF   =      1704.37689527
  -V(xc)+E(xc)   XCENC  =      1368.27069127
  PAW double counting   =     32705.07187869   -36310.02099081
  entropy T*S    EENTRO =        -0.00000000
  eigenvalues    EBANDS =    -12945.06417688
  atomic energy  EATOM  =     48107.52088990
  ---------------------------------------------------
  free energy    TOTEN  =      -560.51957066 eV

  energy without entropy =     -560.51957066  energy(sigma->0) =     -560.51957066
  exchange ACFDT corr.  =         0.00000000  see jH, gK, PRB 81, 115126


--------------------------------------------------------------------------------------------------------




--------------------------------------- Iteration      1(   6)  ---------------------------------------


    POTLOK:  cpu time      0.0443: real time      0.0443
    SETDIJ:  cpu time      0.1883: real time      0.1883
    TRIAL :  cpu time     69.2232: real time     69.2315
    CORREC:  cpu time     69.1661: real time     69.1732
    CHARGE:  cpu time      0.0578: real time      0.0578
    --------------------------------------------
      LOOP:  cpu time    138.6940: real time    138.7096

 eigenvalue-minimisations  :     0
 total energy-change (2. order) : 0.2107682E+03  (-0.1126919E+03)
 number of electron     457.9999268 magnetization 
 augmentation part      156.9932340 magnetization 

 DIPCOR: dipole corrections for dipol
 direction  3 min pos     1,
 dipolmoment           0.000000      0.000000      0.305733 electrons x Angstroem
 Tr[quadrupol]     -6352.416891

 energy correction for charged system         0.000000 eV
 dipol+quadrupol energy correction           -0.005565 eV
 added-field ion interaction         -2.464274 eV  (added to PSCEN)


 Free energy of the ion-electron system (eV)
  ---------------------------------------------------
  alpha Z        PSCENC =       903.58088306
  Ewald energy   TEWEN  =    137215.36367639
  -Hartree energ DENC   =   -177361.90966296
  -exchange      EXHF   =      1707.47573156
  -V(xc)+E(xc)   XCENC  =      1473.21510154
  PAW double counting   =     37953.35582152   -41523.33520139
  entropy T*S    EENTRO =        -0.00000000
  eigenvalues    EBANDS =     -8825.01865750
  atomic energy  EATOM  =     48107.52088990
  ---------------------------------------------------
  free energy    TOTEN  =      -349.75141789 eV

  energy without entropy =     -349.75141789  energy(sigma->0) =     -349.75141789
  exchange ACFDT corr.  =         0.00000000  see jH, gK, PRB 81, 115126


--------------------------------------------------------------------------------------------------------




--------------------------------------- Iteration      1(   7)  ---------------------------------------


    POTLOK:  cpu time      0.0422: real time      0.0422
    SETDIJ:  cpu time      0.1885: real time      0.1885
    TRIAL :  cpu time     68.9405: real time     68.9485
    CORREC:  cpu time     69.0947: real time     69.1017
    CHARGE:  cpu time      0.0541: real time      0.0541
    --------------------------------------------
      LOOP:  cpu time    138.3280: real time    138.3505

 eigenvalue-minimisations  :     0
 total energy-change (2. order) :-0.1132784E+03  (-0.9216268E+01)
 number of electron     457.9999252 magnetization 
 augmentation part      155.1227854 magnetization 

 DIPCOR: dipole corrections for dipol
 direction  3 min pos     1,
 dipolmoment           0.000000      0.000000      0.249250 electrons x Angstroem
 Tr[quadrupol]     -6362.016370

 energy correction for charged system         0.000000 eV
 dipol+quadrupol energy correction           -0.003698 eV
 added-field ion interaction         -2.009016 eV  (added to PSCEN)


 Free energy of the ion-electron system (eV)
  ---------------------------------------------------
  alpha Z        PSCENC =       905.23654542
  Ewald energy   TEWEN  =    137215.36367639
  -Hartree energ DENC   =   -175357.06121460
  -exchange      EXHF   =      1642.92265072
  -V(xc)+E(xc)   XCENC  =      1415.83318748
  PAW double counting   =     36722.57407189   -40343.65530501
  entropy T*S    EENTRO =        -0.00000000
  eigenvalues    EBANDS =    -10771.76436654
  atomic energy  EATOM  =     48107.52088990
  ---------------------------------------------------
  free energy    TOTEN  =      -463.02986434 eV

  energy without entropy =     -463.02986434  energy(sigma->0) =     -463.02986434
  exchange ACFDT corr.  =         0.00000000  see jH, gK, PRB 81, 115126


--------------------------------------------------------------------------------------------------------




--------------------------------------- Iteration      1(   8)  ---------------------------------------


    POTLOK:  cpu time      0.0419: real time      0.0419
    SETDIJ:  cpu time      0.1884: real time      0.1884
    TRIAL :  cpu time     69.1610: real time     69.1665
    CORREC:  cpu time     69.1294: real time     69.1356
    CHARGE:  cpu time      0.0562: real time      0.0562
    --------------------------------------------
      LOOP:  cpu time    138.5922: real time    138.6044

 eigenvalue-minimisations  :     0
 total energy-change (2. order) :-0.9268460E+01  (-0.6089820E+01)
 number of electron     457.9999231 magnetization 
 augmentation part      155.1868736 magnetization 

 DIPCOR: dipole corrections for dipol
 direction  3 min pos     1,
 dipolmoment           0.000000      0.000000      0.146635 electrons x Angstroem
 Tr[quadrupol]     -6362.867825

 energy correction for charged system         0.000000 eV
 dipol+quadrupol energy correction           -0.001280 eV
 added-field ion interaction         -1.181909 eV  (added to PSCEN)


 Free energy of the ion-electron system (eV)
  ---------------------------------------------------
  alpha Z        PSCENC =       906.25212419
  Ewald energy   TEWEN  =    137215.36367639
  -Hartree energ DENC   =   -175388.71647033
  -exchange      EXHF   =      1635.54123819
  -V(xc)+E(xc)   XCENC  =      1408.34141504
  PAW double counting   =     36640.35790085   -40202.54924762
  entropy T*S    EENTRO =        -0.00000000
  eigenvalues    EBANDS =    -10794.40985091
  atomic energy  EATOM  =     48107.52088990
  ---------------------------------------------------
  free energy    TOTEN  =      -472.29832429 eV

  energy without entropy =     -472.29832429  energy(sigma->0) =     -472.29832429
  exchange ACFDT corr.  =        -0.00000000  see jH, gK, PRB 81, 115126


--------------------------------------------------------------------------------------------------------




--------------------------------------- Iteration      1(   9)  ---------------------------------------


    POTLOK:  cpu time      0.0434: real time      0.0434
    SETDIJ:  cpu time      0.1914: real time      0.1914
    TRIAL :  cpu time     69.2390: real time     69.2447
    CORREC:  cpu time     69.1445: real time     69.1500
    CHARGE:  cpu time      0.0577: real time      0.0577
    --------------------------------------------
      LOOP:  cpu time    138.6858: real time    138.7068

 eigenvalue-minimisations  :     0
 total energy-change (2. order) :-0.5970663E+01  (-0.3089917E+01)
 number of electron     457.9999229 magnetization 
 augmentation part      155.1491810 magnetization 

 DIPCOR: dipole corrections for dipol
 direction  3 min pos     1,
 dipolmoment           0.000000      0.000000      0.095969 electrons x Angstroem
 Tr[quadrupol]     -6356.074682

 energy correction for charged system         0.000000 eV
 dipol+quadrupol energy correction           -0.000548 eV
 added-field ion interaction         -0.773533 eV  (added to PSCEN)


 Free energy of the ion-electron system (eV)
  ---------------------------------------------------
  alpha Z        PSCENC =       907.07955076
  Ewald energy   TEWEN  =    137215.36367639
  -Hartree energ DENC   =   -175292.51080981
  -exchange      EXHF   =      1632.16976441
  -V(xc)+E(xc)   XCENC  =      1406.67083565
  PAW double counting   =     36527.58215436   -40125.82116778
  entropy T*S    EENTRO =        -0.00000000
  eigenvalues    EBANDS =    -10856.32388127
  atomic energy  EATOM  =     48107.52088990
  ---------------------------------------------------
  free energy    TOTEN  =      -478.26898739 eV

  energy without entropy =     -478.26898739  energy(sigma->0) =     -478.26898739
  exchange ACFDT corr.  =        -0.00000000  see jH, gK, PRB 81, 115126


--------------------------------------------------------------------------------------------------------




--------------------------------------- Iteration      1(  10)  ---------------------------------------


    POTLOK:  cpu time      0.0419: real time      0.0419
    SETDIJ:  cpu time      0.1884: real time      0.1884
    TRIAL :  cpu time     69.1811: real time     69.1866
    CORREC:  cpu time     68.9863: real time     68.9918
    CHARGE:  cpu time      0.0557: real time      0.0557
    --------------------------------------------
      LOOP:  cpu time    138.4687: real time    138.4798

 eigenvalue-minimisations  :     0
 total energy-change (2. order) :-0.3113835E+01  (-0.1098778E+01)
 number of electron     457.9999236 magnetization 
 augmentation part      155.0085921 magnetization 

 DIPCOR: dipole corrections for dipol
 direction  3 min pos     1,
 dipolmoment           0.000000      0.000000      0.122046 electrons x Angstroem
 Tr[quadrupol]     -6353.126326

 energy correction for charged system         0.000000 eV
 dipol+quadrupol energy correction           -0.000887 eV
 added-field ion interaction         -0.983716 eV  (added to PSCEN)


 Free energy of the ion-electron system (eV)
  ---------------------------------------------------
  alpha Z        PSCENC =       907.17855784
  Ewald energy   TEWEN  =    137215.36367639
  -Hartree energ DENC   =   -175086.19461295
  -exchange      EXHF   =      1628.21897636
  -V(xc)+E(xc)   XCENC  =      1404.41110165
  PAW double counting   =     36365.43579729   -39973.17703748
  entropy T*S    EENTRO =        -0.00000000
  eigenvalues    EBANDS =    -11050.14017144
  atomic energy  EATOM  =     48107.52088990
  ---------------------------------------------------
  free energy    TOTEN  =      -481.38282244 eV

  energy without entropy =     -481.38282244  energy(sigma->0) =     -481.38282244
  exchange ACFDT corr.  =        -0.00000000  see jH, gK, PRB 81, 115126


--------------------------------------------------------------------------------------------------------




--------------------------------------- Iteration      1(  11)  ---------------------------------------


    POTLOK:  cpu time      0.0415: real time      0.0415
    SETDIJ:  cpu time      0.1885: real time      0.1885
    TRIAL :  cpu time     69.0612: real time     69.0666
    CORREC:  cpu time     68.9619: real time     68.9664
    CHARGE:  cpu time      0.0569: real time      0.0569
    --------------------------------------------
      LOOP:  cpu time    138.3147: real time    138.3352

 eigenvalue-minimisations  :     0
 total energy-change (2. order) :-0.1103455E+01  (-0.4381730E+00)
 number of electron     457.9999243 magnetization 
 augmentation part      155.1117986 magnetization 

 DIPCOR: dipole corrections for dipol
 direction  3 min pos     1,
 dipolmoment           0.000000      0.000000      0.139203 electrons x Angstroem
 Tr[quadrupol]     -6353.582635

 energy correction for charged system         0.000000 eV
 dipol+quadrupol energy correction           -0.001154 eV
 added-field ion interaction         -1.122009 eV  (added to PSCEN)


 Free energy of the ion-electron system (eV)
  ---------------------------------------------------
  alpha Z        PSCENC =       907.02366433
  Ewald energy   TEWEN  =    137215.36367639
  -Hartree energ DENC   =   -174969.11147466
  -exchange      EXHF   =      1626.10486875
  -V(xc)+E(xc)   XCENC  =      1403.06061228
  PAW double counting   =     36272.39551201   -39868.47789991
  entropy T*S    EENTRO =        -0.00000000
  eigenvalues    EBANDS =    -11176.36612675
  atomic energy  EATOM  =     48107.52088990
  ---------------------------------------------------
  free energy    TOTEN  =      -482.48627766 eV

  energy without entropy =     -482.48627766  energy(sigma->0) =     -482.48627766
  exchange ACFDT corr.  =        -0.00000000  see jH, gK, PRB 81, 115126


--------------------------------------------------------------------------------------------------------




--------------------------------------- Iteration      1(  12)  ---------------------------------------


    POTLOK:  cpu time      0.0428: real time      0.0428
    SETDIJ:  cpu time      0.1888: real time      0.1888
    TRIAL :  cpu time     68.9938: real time     68.9993
    CORREC:  cpu time     68.9799: real time     68.9858
    CHARGE:  cpu time      0.0536: real time      0.0536
    --------------------------------------------
      LOOP:  cpu time    138.2750: real time    138.2868

 eigenvalue-minimisations  :     0
 total energy-change (2. order) :-0.4381152E+00  (-0.1842409E+00)
 number of electron     457.9999246 magnetization 
 augmentation part      155.3091322 magnetization 

 DIPCOR: dipole corrections for dipol
 direction  3 min pos     1,
 dipolmoment           0.000000      0.000000      0.151175 electrons x Angstroem
 Tr[quadrupol]     -6354.168391

 energy correction for charged system         0.000000 eV
 dipol+quadrupol energy correction           -0.001361 eV
 added-field ion interaction         -1.218503 eV  (added to PSCEN)


 Free energy of the ion-electron system (eV)
  ---------------------------------------------------
  alpha Z        PSCENC =       906.84430171
  Ewald energy   TEWEN  =    137215.36367639
  -Hartree energ DENC   =   -174961.21447857
  -exchange      EXHF   =      1625.94415646
[...]
    277       8.6032      0.00000
    278       8.6122      0.00000
    279       8.7447      0.00000
    280       8.8303      0.00000
    281       9.0768      0.00000
    282       9.1092      0.00000
    283       9.1119      0.00000
    284       9.1125      0.00000
    285       9.1145      0.00000
    286       9.1206      0.00000
    287       9.1305      0.00000
    288       9.1493      0.00000
    289       9.1545      0.00000
    290       9.1960      0.00000
    291       9.1986      0.00000
    292       9.2022      0.00000
    293       9.4071      0.00000
    294       9.4249      0.00000
    295       9.4489      0.00000
    296       9.4732      0.00000
    297       9.5274      0.00000
    298       9.6011      0.00000
    299       9.6392      0.00000
    300       9.7013      0.00000
    301       9.8408      0.00000
    302       9.8555      0.00000
    303       9.9121      0.00000
    304       9.9122      0.00000
    305       9.9256      0.00000
    306       9.9658      0.00000
    307       9.9721      0.00000
    308       9.9945      0.00000
    309      10.0795      0.00000
    310      10.1407      0.00000
    311      10.3558      0.00000
    312      10.7224      0.00000
    313      10.7629      0.00000
    314      10.8148      0.00000
    315      10.9353      0.00000
    316      10.9518      0.00000
    317      11.4477      0.00000
    318      11.4737      0.00000
    319      11.6178      0.00000
    320      11.6343      0.00000


--------------------------------------------------------------------------------------------------------


 soft charge-density along one line, spin component           1
         0         1         2         3         4         5         6         7         8         9
 total charge-density along one line

 pseudopotential strength for first ion, spin component:           1
  9.963  13.247   0.000   0.035   0.000  -0.000  -0.105  -0.000
 13.247  17.613   0.000   0.046   0.000  -0.000  -0.139  -0.000
  0.000   0.000  -4.193  -0.000  -0.000   8.186   0.000   0.000
  0.035   0.046  -0.000  -4.228  -0.000   0.000   8.246   0.000
  0.000   0.000  -0.000  -0.000  -4.193   0.000   0.000   8.186
 -0.000  -0.000   8.186   0.000   0.000 -18.094  -0.000  -0.000
 -0.105  -0.139   0.000   8.246   0.000  -0.000 -18.200  -0.000
 -0.000  -0.000   0.000   0.000   8.186  -0.000  -0.000 -18.094
 total augmentation occupancy for first ion, spin component:           1
  7.939  -3.623   0.000   2.010   0.000  -0.000   0.385   0.000
 -3.623   2.001   0.000  -1.542   0.000   0.000  -0.235  -0.000
  0.000   0.000   0.820   0.000   0.000   0.066   0.000   0.000
  2.010  -1.542   0.000   2.265   0.000   0.000   0.219   0.000
  0.000   0.000   0.000   0.000   0.820   0.000  -0.000   0.066
 -0.000   0.000   0.066   0.000   0.000   0.005   0.000   0.000
  0.385  -0.235   0.000   0.219  -0.000   0.000   0.030   0.000
  0.000  -0.000   0.000   0.000   0.066   0.000   0.000   0.005


------------------------ aborting loop because EDIFF is reached ----------------------------------------


    FORLOC:  cpu time      0.0023: real time      0.0023
    FORHF :  cpu time     68.8315: real time     68.8385
    FORNL :  cpu time      0.3282: real time      0.3283
    STRESS:  cpu time      0.9314: real time      0.9315
    FORCOR:  cpu time      0.0354: real time      0.0354
    OFIELD:  cpu time      0.0001: real time      0.0001
    FORVDW:  cpu time      7.9141: real time      7.9416

  FORCE on cell =-STRESS in cart. coord.  units (eV):
  Direction    XX          YY          ZZ          XY          YZ          ZX
  --------------------------------------------------------------------------------------
  Alpha Z   907.96410   907.96410   907.96410
  Ewald  157715.86896157715.86896************     0.00000     0.00000    -0.00000
  Hartree168218.17159168218.17159************    -0.00000    -0.00000    -0.00000
  E(xc)   -1888.00883 -1888.00883 -1890.38200    -0.00000     0.00000     0.00000
  Local  ************************335502.37219    -0.00000     0.00000    -0.00000
  n-local  -732.92433  -733.33787  -765.63310    -0.00001     0.00000     0.00000
  augment   833.26959   833.26959   822.07647     0.00000     0.00000     0.00000
  Kinetic  7508.40074  7510.10660  7531.68566     0.00000     0.00000    -0.00000
  Fock    -2515.66598 -2515.75424 -2514.99749     0.00000    -0.00000    -0.00000
  vdW        -8.80169    -8.80170    -6.10748     0.00000    -0.00000    -0.00000
  -------------------------------------------------------------------------------------
  Total     -50.18800   -50.18800   -20.32900     0.00000     0.00000     0.00000
  in kB     -52.90763   -52.90763   -21.43061     0.00000     0.00000     0.00000
  external pressure =      -42.42 kB  Pullay stress =        0.00 kB


 VOLUME and BASIS-vectors are now :
 -----------------------------------------------------------------------------
  energy-cutoff  :      600.00
  volume of cell :     1519.82
      direct lattice vectors                 reciprocal lattice vectors
     8.440984654  0.000000000  0.000000000     0.118469591  0.000000000  0.000000000
     0.000000000  8.440984654  0.000000000     0.000000000  0.118469591  0.000000000
     0.000000000  0.000000000 21.330738491     0.000000000  0.000000000  0.046880702

  length of vectors
     8.440984654  8.440984654 21.330738491     0.118469591  0.118469591  0.046880702


 FORCES acting on ions:
    Electron-Ion                     Ewald-Force                    Non-Local-Force
 -----------------------------------------------------------------------------------------------
   0.113E-12 0.572E-12 -.843E+03   0.222E-13 -.311E-14 0.818E+03   -.662E-23 -.165E-23 0.259E+02
   0.444E-12 -.195E-11 -.146E+04   -.999E-14 -.222E-14 0.152E+04   0.000E+00 0.000E+00 -.532E+02
   -.804E-13 -.132E+00 0.208E+04   0.560E-13 0.132E+00 -.207E+04   0.132E-22 0.475E-04 -.677E+01
   0.132E+00 0.337E-12 0.208E+04   -.132E+00 0.671E-13 -.207E+04   -.475E-04 0.000E+00 -.677E+01
   -.928E-13 -.808E-13 0.713E+03   -.150E-10 0.150E-10 -.714E+03   0.240E-22 0.000E+00 0.450E+00
   0.493E+00 -.493E+00 0.714E+03   -.488E+00 0.488E+00 -.715E+03   -.269E-02 0.269E-02 0.473E+00
   -.646E-13 -.291E+01 -.642E+03   0.157E-11 0.289E+01 0.643E+03   0.000E+00 0.175E-01 -.111E+00
   0.291E+01 0.202E-12 -.642E+03   -.289E+01 -.151E-11 0.643E+03   -.175E-01 -.529E-22 -.111E+00
   -.613E-13 -.162E-12 -.200E+04   0.444E-12 -.416E-12 0.200E+04   0.000E+00 0.000E+00 0.572E+01
   0.185E+02 -.185E+02 -.198E+04   -.186E+02 0.186E+02 0.198E+04   0.781E-01 -.781E-01 0.581E+01
   -.918E-13 0.132E+00 0.208E+04   -.277E-12 -.132E+00 -.207E+04   0.000E+00 -.475E-04 -.677E+01
   0.128E+00 0.104E-11 0.208E+04   -.126E+00 0.131E-10 -.207E+04   -.144E-02 0.513E-22 -.677E+01
   -.872E-13 0.929E-12 0.715E+03   -.165E-10 0.000E+00 -.715E+03   0.000E+00 0.000E+00 0.413E+00
   0.493E+00 0.493E+00 0.714E+03   -.488E+00 -.488E+00 -.715E+03   -.269E-02 -.269E-02 0.473E+00
   -.722E-13 0.291E+01 -.642E+03   0.304E-11 -.289E+01 0.643E+03   0.529E-22 -.175E-01 -.111E+00
   0.428E+01 0.106E-11 -.635E+03   -.420E+01 0.178E-14 0.636E+03   -.728E-01 0.529E-22 -.222E+00
   -.493E-13 0.916E-12 -.199E+04   -.355E-13 -.995E-13 0.198E+04   0.000E+00 -.265E-22 0.573E+01
   0.185E+02 0.185E+02 -.198E+04   -.186E+02 -.186E+02 0.198E+04   0.781E-01 0.781E-01 0.581E+01
   0.910E-12 -.128E+00 0.208E+04   -.129E-10 0.126E+00 -.207E+04   0.529E-22 0.144E-02 -.677E+01
   -.132E+00 0.323E-12 0.208E+04   0.132E+00 0.471E-13 -.207E+04   0.475E-04 -.662E-23 -.677E+01
   0.851E-12 -.269E-12 0.715E+03   0.145E-11 0.150E-10 -.715E+03   -.265E-22 0.000E+00 0.413E+00
   -.493E+00 -.493E+00 0.714E+03   0.488E+00 0.488E+00 -.715E+03   0.269E-02 0.269E-02 0.473E+00
   0.842E-12 -.428E+01 -.635E+03   -.141E-11 0.420E+01 0.636E+03   -.662E-23 0.728E-01 -.222E+00
   -.291E+01 0.202E-12 -.642E+03   0.289E+01 -.156E-11 0.643E+03   0.175E-01 0.265E-22 -.111E+00
   0.911E-12 0.444E-12 -.199E+04   0.782E-13 -.355E-14 0.198E+04   0.000E+00 0.000E+00 0.573E+01
   -.185E+02 -.185E+02 -.198E+04   0.186E+02 0.186E+02 0.198E+04   -.781E-01 -.781E-01 0.581E+01
   0.907E-12 0.128E+00 0.208E+04   -.131E-10 -.126E+00 -.207E+04   0.000E+00 -.144E-02 -.677E+01
   -.128E+00 0.539E-12 0.208E+04   0.126E+00 0.131E-10 -.207E+04   0.144E-02 0.000E+00 -.677E+01
   0.893E-12 0.160E-11 0.715E+03   -.782E-13 0.355E-14 -.715E+03   0.000E+00 0.000E+00 0.540E+00
   -.493E+00 0.493E+00 0.714E+03   0.488E+00 -.488E+00 -.715E+03   0.269E-02 -.269E-02 0.473E+00
   0.845E-12 0.428E+01 -.635E+03   -.284E-13 -.420E+01 0.636E+03   0.000E+00 -.728E-01 -.222E+00
   -.428E+01 -.174E-11 -.635E+03   0.420E+01 0.000E+00 0.636E+03   0.728E-01 0.000E+00 -.222E+00
   0.913E-12 0.633E-12 -.191E+04   -.426E-13 -.391E-13 0.191E+04   0.000E+00 0.000E+00 0.374E+01
   -.185E+02 0.185E+02 -.198E+04   0.186E+02 -.186E+02 0.198E+04   -.781E-01 0.781E-01 0.581E+01
   -.671E-13 -.418E+00 0.535E+03   0.409E-13 0.412E+00 -.535E+03   0.000E+00 0.726E-02 -.102E+00
   0.418E+00 -.539E-13 0.535E+03   -.412E+00 0.391E-13 -.535E+03   -.726E-02 0.000E+00 -.102E+00
   -.580E-13 -.128E-12 0.156E+04   0.853E-11 -.844E-11 -.156E+04   0.000E+00 0.000E+00 0.303E+01
   0.967E-01 -.967E-01 0.156E+04   -.959E-01 0.959E-01 -.156E+04   -.107E-02 0.107E-02 0.303E+01
   -.630E-13 -.744E+01 -.152E+04   -.871E-12 0.738E+01 0.153E+04   0.000E+00 0.521E-01 -.445E+01
   0.744E+01 -.121E-12 -.152E+04   -.738E+01 0.881E-12 0.153E+04   -.521E-01 -.265E-22 -.445E+01
   -.771E-13 0.498E-12 -.478E+03   -.853E-13 0.639E-13 0.478E+03   0.331E-23 0.000E+00 0.255E+00
   0.264E+01 -.264E+01 -.473E+03   -.263E+01 0.263E+01 0.473E+03   -.769E-02 0.769E-02 0.316E+00
   -.769E-13 0.418E+00 0.535E+03   0.142E-13 -.412E+00 -.535E+03   -.165E-23 -.726E-02 -.102E+00
   0.397E+00 0.431E-12 0.536E+03   -.425E+00 -.764E-11 -.536E+03   0.320E-01 -.265E-22 -.121E+00
   -.500E-13 0.323E-12 0.156E+04   0.845E-11 -.796E-12 -.156E+04   0.000E+00 0.000E+00 0.303E+01
   0.967E-01 0.967E-01 0.156E+04   -.959E-01 -.959E-01 -.156E+04   -.107E-02 -.107E-02 0.303E+01
   -.485E-13 0.744E+01 -.152E+04   -.774E-12 -.738E+01 0.153E+04   -.132E-22 -.521E-01 -.445E+01
   0.243E+02 0.855E-12 -.149E+04   -.240E+02 0.810E-11 0.149E+04   -.290E+00 -.662E-23 -.439E+01
   -.800E-13 0.741E-12 -.473E+03   -.741E-11 0.711E-14 0.473E+03   0.000E+00 -.132E-22 0.272E+00
   0.264E+01 0.264E+01 -.473E+03   -.263E+01 -.263E+01 0.473E+03   -.769E-02 -.769E-02 0.316E+00
   0.339E-12 -.397E+00 0.536E+03   0.764E-11 0.425E+00 -.536E+03   0.000E+00 -.320E-01 -.121E+00
   -.418E+00 -.539E-13 0.535E+03   0.412E+00 0.142E-13 -.535E+03   0.726E-02 0.000E+00 -.102E+00
   0.373E-12 0.330E-12 0.156E+04   0.845E-12 -.846E-11 -.156E+04   -.662E-23 0.000E+00 0.303E+01
   -.967E-01 -.967E-01 0.156E+04   0.959E-01 0.959E-01 -.156E+04   0.107E-02 0.107E-02 0.303E+01
   0.385E-12 -.243E+02 -.149E+04   -.816E-11 0.240E+02 0.149E+04   0.000E+00 0.290E+00 -.439E+01
   -.744E+01 -.101E-12 -.152E+04   0.738E+01 0.924E-12 0.153E+04   0.521E-01 0.000E+00 -.445E+01
   0.341E-12 0.189E-12 -.473E+03   -.711E-14 0.738E-11 0.473E+03   0.000E+00 0.000E+00 0.272E+00
   -.264E+01 -.264E+01 -.473E+03   0.263E+01 0.263E+01 0.473E+03   0.769E-02 0.769E-02 0.316E+00
   0.343E-12 0.397E+00 0.536E+03   0.763E-11 -.425E+00 -.536E+03   0.529E-22 0.320E-01 -.121E+00
   -.397E+00 0.137E-11 0.536E+03   0.425E+00 -.769E-11 -.536E+03   -.320E-01 0.529E-22 -.121E+00
   0.347E-12 0.101E-11 0.156E+04   0.824E-12 -.838E-12 -.156E+04   0.000E+00 0.000E+00 0.303E+01
   -.967E-01 0.967E-01 0.156E+04   0.959E-01 -.959E-01 -.156E+04   0.107E-02 -.107E-02 0.303E+01
   0.383E-12 0.243E+02 -.149E+04   -.820E-11 -.240E+02 0.149E+04   0.000E+00 -.290E+00 -.439E+01
   -.243E+02 -.168E-11 -.149E+04   0.240E+02 0.819E-11 0.149E+04   0.290E+00 0.000E+00 -.439E+01
   0.326E-12 0.175E-12 -.473E+03   -.497E-13 0.426E-13 0.473E+03   0.000E+00 -.662E-23 -.159E+00
   -.264E+01 0.264E+01 -.473E+03   0.263E+01 -.263E+01 0.473E+03   0.769E-02 -.769E-02 0.316E+00
 -----------------------------------------------------------------------------------------------
   0.262E-10 0.191E-10 0.552E+02   0.306E-12 -.480E-13 0.568E-12   -.173E-17 0.121E-16 -.451E+02


 POSITION                                       TOTAL-FORCE (eV/Angst)
 -----------------------------------------------------------------------------------
      4.22049      4.22049     16.28814         0.000000      0.000000      2.105615
      4.22049      4.22049     17.43496         0.000000      0.000000     -2.034092
      0.00000      6.33074      7.50000         0.000000     -0.000058      0.586741
      2.11025      0.00000      7.50000         0.000058      0.000000      0.586741
      0.00000      0.00000      9.61025         0.000000      0.000000      0.050787
      2.11025      6.33074      9.61025         0.001655     -0.001655      0.052722
      0.00000      6.33023     11.73368         0.000000     -0.001246      0.006498
      2.11076      0.00000     11.73368         0.001246      0.000000      0.006498
      0.00000      0.00000     13.83822         0.000000      0.000000     -0.202196
      2.10905      6.33193     13.83447        -0.008434      0.008434     -0.215658
      0.00000      2.11025      7.50000         0.000000      0.000058      0.586741
      2.11025      4.22049      7.50000         0.000479      0.000000      0.586935
      0.00000      4.22049      9.61025         0.000000      0.000000      0.061120
      2.11025      2.11025      9.61025         0.001655      0.001655      0.052722
      0.00000      2.11076     11.73368         0.000000      0.001246      0.006498
      2.11344      4.22049     11.73659        -0.003674      0.000000      0.016063
      0.00000      4.22049     13.83544         0.000000      0.000000     -0.207329
      2.10905      2.10905     13.83447        -0.008434     -0.008434     -0.215658
      4.22049      6.33074      7.50000         0.000000     -0.000479      0.586935
      6.33074      0.00000      7.50000        -0.000058      0.000000      0.586741
      4.22049      0.00000      9.61025         0.000000      0.000000      0.061120
      6.33074      6.33074      9.61025        -0.001655     -0.001655      0.052722
      4.22049      6.32754     11.73659         0.000000      0.003674      0.016063
      6.33023      0.00000     11.73368        -0.001246      0.000000      0.006498
      4.22049      0.00000     13.83544         0.000000      0.000000     -0.207329
      6.33193      6.33193     13.83447         0.008434      0.008434     -0.215658
      4.22049      2.11025      7.50000         0.000000      0.000479      0.586935
      6.33074      4.22049      7.50000        -0.000479      0.000000      0.586935
      4.22049      4.22049      9.61025         0.000000      0.000000      0.064376
      6.33074      2.11025      9.61025        -0.001655      0.001655      0.052722
      4.22049      2.11344     11.73659         0.000000     -0.003674      0.016063
      6.32754      4.22049     11.73659         0.003674      0.000000      0.016063
      4.22049      4.22049     13.87814         0.000000      0.000000     -0.222887
      6.33193      2.10905     13.83447         0.008434     -0.008434     -0.215658
      0.00000      6.33074      9.61025         0.000000      0.002574      0.061704
      2.11025      0.00000      9.61025        -0.002574      0.000000      0.061704
      0.00000      0.00000      7.50000         0.000000      0.000000     -0.413462
      2.11025      6.33074      7.50000        -0.000384      0.000384     -0.413261
      0.00000      6.33258     13.88587         0.000000     -0.000339     -0.126976
      2.10840      0.00000     13.88587         0.000339      0.000000     -0.126976
      0.00000      0.00000     11.72785         0.000000      0.000000      0.025247
      2.10979      6.33120     11.72890         0.002376     -0.002376      0.020115
      0.00000      2.11025      9.61025         0.000000     -0.002574      0.061704
      2.11025      4.22049      9.61025         0.010008      0.000000      0.069580
      0.00000      4.22049      7.50000         0.000000      0.000000     -0.413529
      2.11025      2.11025      7.50000        -0.000384     -0.000384     -0.413261
      0.00000      2.10840     13.88587         0.000000      0.000339     -0.126976
      2.10031      4.22049     13.88381        -0.013076      0.000000     -0.116136
      0.00000      4.22049     11.72684         0.000000      0.000000      0.021852
      2.10979      2.10979     11.72890         0.002376      0.002376      0.020115
      4.22049      6.33074      9.61025         0.000000     -0.010008      0.069580
      6.33074      0.00000      9.61025         0.002574      0.000000      0.061704
      4.22049      0.00000      7.50000         0.000000      0.000000     -0.413529
      6.33074      6.33074      7.50000         0.000384      0.000384     -0.413261
      4.22049      6.34068     13.88381         0.000000      0.013076     -0.116136
      6.33258      0.00000     13.88587        -0.000339      0.000000     -0.126976
      4.22049      0.00000     11.72684         0.000000      0.000000      0.021852
      6.33120      6.33120     11.72890        -0.002376     -0.002376      0.020115
      4.22049      2.11025      9.61025         0.000000      0.010008      0.069580
      6.33074      4.22049      9.61025        -0.010008      0.000000      0.069580
      4.22049      4.22049      7.50000         0.000000      0.000000     -0.413993
      6.33074      2.11025      7.50000         0.000384     -0.000384     -0.413261
      4.22049      2.10031     13.88381         0.000000     -0.013076     -0.116136
      6.34068      4.22049     13.88381         0.013076      0.000000     -0.116136
      4.22049      4.22049     11.73684         0.000000      0.000000      0.003063
      6.33120      2.10979     11.72890        -0.002376      0.002376      0.020115
 -----------------------------------------------------------------------------------
    total drift:                                0.000000      0.000000     -0.015432


--------------------------------------------------------------------------------------------------------



  FREE ENERGIE OF THE ION-ELECTRON SYSTEM (eV)
  ---------------------------------------------------
  free  energy   TOTEN  =      -490.97926153 eV

  energy  without entropy=     -490.97926153  energy(sigma->0) =     -490.97926153



--------------------------------------------------------------------------------------------------------


    POTLOK:  cpu time      0.4018: real time      0.4018


--------------------------------------------------------------------------------------------------------


     LOOP+:  cpu time   3706.8954: real time   3707.6299
    4ORBIT:  cpu time      0.0000: real time      0.0000

 total amount of memory used by VASP MPI-rank0   185308. kBytes
=======================================================================

   base      :      30000. kBytes
   nonl-proj :      14893. kBytes
   fftplans  :       3932. kBytes
   grid      :       3944. kBytes
   one-center:         73. kBytes
   HF        :        101. kBytes
   nonlr-proj:      15028. kBytes
   wavefun   :       4746. kBytes
   fock_wrk  :     112591. kBytes

  
  
 General timing and accounting informations for this job:
 ========================================================
  
                  Total CPU time used (sec):     3736.389
                            User time (sec):     3726.566
                          System time (sec):        9.823
                         Elapsed time (sec):     3748.463
  
                   Maximum memory used (kb):      413624.
                   Average memory used (kb):          N/A
  
                          Minor page faults:       291211
                          Major page faults:           52
                 Voluntary context switches:        13703
