 vasp.6.3.0 20Jan22 (build Apr  1 2022 16:44:48) complex                         
 executed on        HPECrayEX_GCC date 2023.05.17  21:47:29
 running  512 mpi-ranks, with    1 threads/rank
 distrk:  each k-point on  256 cores,    2 groups
 distr:  one band on NCORE=   4 cores,   64 groups


--------------------------------------------------------------------------------------------------------


 INCAR:
   SYSTEM = MgO-rocksalt
   ISMEAR = 0
   SIGMA = 0.05
   EDIFF = 1E-6
   ALGO = ALL
   ISTART = 0
   IBRION = -1
   NSW = 0
   ISYM = 2
   ISIF = 2
   EDIFFG = -0.01
   DIPOL = 0.5 0.5 0.5
   IDIPOL = 3
   LDIPOL = .TRUE.
   GGA = RE
   IVDW = 13
   VDW_S8 = 1.7468
   VDW_A1 = 0.5363
   VDW_A2 = 3.0726
   ENCUT = 600
   PREC = Normal
   LASPH = .TRUE.
   LREAL = .FALSE.
   ISPIN = 1
   NELM = 200
   NELMIN = 8
   NCORE = 4
   KPAR = 2
   LWAVE = .FALSE.
   LCHARG = .FALSE.

 POTCAR:    PAW_PBE C 08Apr2002                   
 POTCAR:    PAW_PBE O 08Apr2002                   
 POTCAR:    PAW_PBE Mg_pv 13Apr2007               
 POTCAR:    PAW_PBE O 08Apr2002                   
 POTCAR:    PAW_PBE C 08Apr2002                   
   SHA256 =  253f7b50bb8d59471dbedb8285d89021f4a42ed1a2c5d38a03a736e69125dd95 C/POTCAR              
   COPYR  = (c) Copyright 08Apr2002 Georg Kresse                                                    
   COPYR  = This file is part of the software VASP. Any use, copying, and all other rights are regul
   COPYR  = If you do not have a valid VASP license, you may not use, copy or distribute this file. 
   VRHFIN =C: s2p2                                                                                  
   LEXCH  = PE                                                                                      
   EATOM  =   147.1560 eV,   10.8157 Ry                                                             
                                                                                                    
   TITEL  = PAW_PBE C 08Apr2002                                                                     
   LULTRA =        F    use ultrasoft PP ?                                                          
   IUNSCR =        1    unscreen: 0-lin 1-nonlin 2-no                                               
   RPACOR =    1.200    partial core radius                                                         
   POMASS =   12.011; ZVAL   =    4.000    mass and valenz                                          
   RCORE  =    1.500    outmost cutoff radius                                                       
   RWIGS  =    1.630; RWIGS  =    0.863    wigner-seitz radius (au A)                               
   ENMAX  =  400.000; ENMIN  =  300.000 eV                                                          
   ICORE  =        2    local potential                                                             
   LCOR   =        T    correct aug charges                                                         
   LPAW   =        T    paw PP                                                                      
   EAUG   =  644.873                                                                                
   DEXC   =    0.000                                                                                
   RMAX   =    1.529    core radius for proj-oper                                                   
   RAUG   =    1.300    factor for augmentation sphere                                              
   RDEP   =    1.501    radius for radial grids                                                     
   RDEPT  =    1.300    core radius for aug-charge                                                  
                                                                                                    
   Atomic configuration                                                                             
    4 entries                                                                                       
     n  l   j            E        occ.                                                              
     1  0  0.50      -273.3789   2.0000                                                             
     2  0  0.50       -13.7508   2.0000                                                             
     2  1  0.50        -5.2854   2.0000                                                             
     3  2  1.50        -5.4423   0.0000                                                             
   Description                                                                                      
     l       E           TYP  RCUT    TYP  RCUT                                                     
     0    -13.7508458     23  1.200                                                                 
     0     -8.2022199     23  1.200                                                                 
     1     -5.2854383     23  1.500                                                                 
     1     34.0145650     23  1.500                                                                 
     2     -5.4423304      7  1.500                                                                 
  local pseudopotential read in
  partial core-charges read in
  partial kinetic energy density read in
  atomic valenz-charges read in
  non local Contribution for L=           0  read in
    real space projection operators read in
  non local Contribution for L=           0  read in
    real space projection operators read in
  non local Contribution for L=           1  read in
    real space projection operators read in
  non local Contribution for L=           1  read in
    real space projection operators read in
    PAW grid and wavefunctions read in

   number of l-projection  operators is LMAX  =           4
   number of lm-projection operators is LMMAX =           8

 POTCAR:    PAW_PBE O 08Apr2002                   
   SHA256 =  818f92134a0a090dccd8ba1447fa70422a3b330e708bb4f08108d8ae51209ddf O/POTCAR              
   COPYR  = (c) Copyright 08Apr2002 Georg Kresse                                                    
   COPYR  = This file is part of the software VASP. Any use, copying, and all other rights are regul
   COPYR  = If you do not have a valid VASP license, you may not use, copy or distribute this file. 
   VRHFIN =O: s2p4                                                                                  
   LEXCH  = PE                                                                                      
   EATOM  =   432.3788 eV,   31.7789 Ry                                                             
                                                                                                    
   TITEL  = PAW_PBE O 08Apr2002                                                                     
   LULTRA =        F    use ultrasoft PP ?                                                          
   IUNSCR =        1    unscreen: 0-lin 1-nonlin 2-no                                               
   RPACOR =    1.200    partial core radius                                                         
   POMASS =   16.000; ZVAL   =    6.000    mass and valenz                                          
   RCORE  =    1.520    outmost cutoff radius                                                       
   RWIGS  =    1.550; RWIGS  =    0.820    wigner-seitz radius (au A)                               
   ENMAX  =  400.000; ENMIN  =  300.000 eV                                                          
   ICORE  =        2    local potential                                                             
   LCOR   =        T    correct aug charges                                                         
   LPAW   =        T    paw PP                                                                      
   EAUG   =  605.392                                                                                
   DEXC   =    0.000                                                                                
   RMAX   =    1.553    core radius for proj-oper                                                   
   RAUG   =    1.300    factor for augmentation sphere                                              
   RDEP   =    1.550    radius for radial grids                                                     
   RDEPT  =    1.329    core radius for aug-charge                                                  
                                                                                                    
   Atomic configuration                                                                             
    4 entries                                                                                       
     n  l   j            E        occ.                                                              
     1  0  0.50      -514.6923   2.0000                                                             
     2  0  0.50       -23.9615   2.0000                                                             
     2  1  0.50        -9.0305   4.0000                                                             
     3  2  1.50        -9.5241   0.0000                                                             
   Description                                                                                      
     l       E           TYP  RCUT    TYP  RCUT                                                     
     0    -23.9615318     23  1.200                                                                 
     0     -9.5240782     23  1.200                                                                 
     1     -9.0304911     23  1.520                                                                 
     1      8.1634956     23  1.520                                                                 
     2     -9.5240782      7  1.500                                                                 
  local pseudopotential read in
  partial core-charges read in
  partial kinetic energy density read in
  kinetic energy density of atom read in
  atomic valenz-charges read in
  non local Contribution for L=           0  read in
    real space projection operators read in
  non local Contribution for L=           0  read in
    real space projection operators read in
  non local Contribution for L=           1  read in
    real space projection operators read in
  non local Contribution for L=           1  read in
    real space projection operators read in
    PAW grid and wavefunctions read in

   number of l-projection  operators is LMAX  =           4
   number of lm-projection operators is LMMAX =           8

 POTCAR:    PAW_PBE Mg_pv 13Apr2007               
   SHA256 =  f474ac0dd33840b9ae76c01d57fea79fdf77cdfbb07d5ade72c65f83c709b62b Mg_pv/POTCAR          
   COPYR  = (c) Copyright 13Apr2007 Georg Kresse                                                    
   COPYR  = This file is part of the software VASP. Any use, copying, and all other rights are regul
   COPYR  = If you do not have a valid VASP license, you may not use, copy or distribute this file. 
   VRHFIN =Mg: p6s2                                                                                 
   LEXCH  = PE                                                                                      
   EATOM  =  1056.7344 eV,   77.6678 Ry                                                             
                                                                                                    
   TITEL  = PAW_PBE Mg_pv 13Apr2007                                                                 
   LULTRA =        F    use ultrasoft PP ?                                                          
   IUNSCR =        1    unscreen: 0-lin 1-nonlin 2-no                                               
   RPACOR =    1.500    partial core radius                                                         
   POMASS =   24.305; ZVAL   =    8.000    mass and valenz                                          
   RCORE  =    2.000    outmost cutoff radius                                                       
   RWIGS  =    2.000; RWIGS  =    1.058    wigner-seitz radius (au A)                               
   ENMAX  =  403.929; ENMIN  =  302.947 eV                                                          
   RCLOC  =    1.506    cutoff for local pot                                                        
   LCOR   =        T    correct aug charges                                                         
   LPAW   =        T    paw PP                                                                      
   EAUG   =  758.780                                                                                
   DEXC   =    0.000                                                                                
   RMAX   =    2.045    core radius for proj-oper                                                   
   RAUG   =    1.300    factor for augmentation sphere                                              
   RDEP   =    2.025    radius for radial grids                                                     
   RDEPT  =    1.557    core radius for aug-charge                                                  
                                                                                                    
   Atomic configuration                                                                             
    5 entries                                                                                       
     n  l   j            E        occ.                                                              
     1  0  0.50     -1259.6230   2.0000                                                             
     2  0  0.50       -79.8442   2.0000                                                             
     2  1  1.50       -46.6121   6.0000                                                             
     3  0  0.50        -4.7055   2.0000                                                             
     3  2  1.50        -1.3606   0.0000                                                             
   Description                                                                                      
     l       E           TYP  RCUT    TYP  RCUT                                                     
     1    -46.6121073     23  1.600                                                                 
     1      2.7211652     23  1.600                                                                 
     0     -4.7054661     23  2.000                                                                 
     0     61.2262170     23  2.000                                                                 
     2     -1.3605826     23  2.000                                                                 
  local pseudopotential read in
  partial core-charges read in
  partial kinetic energy density read in
  atomic valenz-charges read in
  non local Contribution for L=           1  read in
    real space projection operators read in
  non local Contribution for L=           1  read in
    real space projection operators read in
  non local Contribution for L=           0  read in
    real space projection operators read in
  non local Contribution for L=           0  read in
    real space projection operators read in
  non local Contribution for L=           2  read in
    real space projection operators read in
    PAW grid and wavefunctions read in

   number of l-projection  operators is LMAX  =           5
   number of lm-projection operators is LMMAX =          13

 POTCAR:    PAW_PBE O 08Apr2002                   
   SHA256 =  818f92134a0a090dccd8ba1447fa70422a3b330e708bb4f08108d8ae51209ddf O/POTCAR              
   COPYR  = (c) Copyright 08Apr2002 Georg Kresse                                                    
   COPYR  = This file is part of the software VASP. Any use, copying, and all other rights are regul
   COPYR  = If you do not have a valid VASP license, you may not use, copy or distribute this file. 
   VRHFIN =O: s2p4                                                                                  
   LEXCH  = PE                                                                                      
   EATOM  =   432.3788 eV,   31.7789 Ry                                                             
                                                                                                    
   TITEL  = PAW_PBE O 08Apr2002                                                                     
   LULTRA =        F    use ultrasoft PP ?                                                          
   IUNSCR =        1    unscreen: 0-lin 1-nonlin 2-no                                               
   RPACOR =    1.200    partial core radius                                                         
   POMASS =   16.000; ZVAL   =    6.000    mass and valenz                                          
   RCORE  =    1.520    outmost cutoff radius                                                       
   RWIGS  =    1.550; RWIGS  =    0.820    wigner-seitz radius (au A)                               
   ENMAX  =  400.000; ENMIN  =  300.000 eV                                                          
   ICORE  =        2    local potential                                                             
   LCOR   =        T    correct aug charges                                                         
   LPAW   =        T    paw PP                                                                      
   EAUG   =  605.392                                                                                
   DEXC   =    0.000                                                                                
   RMAX   =    1.553    core radius for proj-oper                                                   
   RAUG   =    1.300    factor for augmentation sphere                                              
   RDEP   =    1.550    radius for radial grids                                                     
   RDEPT  =    1.329    core radius for aug-charge                                                  
                                                                                                    
   Atomic configuration                                                                             
    4 entries                                                                                       
     n  l   j            E        occ.                                                              
     1  0  0.50      -514.6923   2.0000                                                             
     2  0  0.50       -23.9615   2.0000                                                             
     2  1  0.50        -9.0305   4.0000                                                             
     3  2  1.50        -9.5241   0.0000                                                             
   Description                                                                                      
     l       E           TYP  RCUT    TYP  RCUT                                                     
     0    -23.9615318     23  1.200                                                                 
     0     -9.5240782     23  1.200                                                                 
     1     -9.0304911     23  1.520                                                                 
     1      8.1634956     23  1.520                                                                 
     2     -9.5240782      7  1.500                                                                 
  local pseudopotential read in
  partial core-charges read in
  partial kinetic energy density read in
  kinetic energy density of atom read in
  atomic valenz-charges read in
  non local Contribution for L=           0  read in
    real space projection operators read in
  non local Contribution for L=           0  read in
    real space projection operators read in
  non local Contribution for L=           1  read in
    real space projection operators read in
  non local Contribution for L=           1  read in
    real space projection operators read in
    PAW grid and wavefunctions read in

   number of l-projection  operators is LMAX  =           4
   number of lm-projection operators is LMMAX =           8

 -----------------------------------------------------------------------------
|                                                                             |
|               ----> ADVICE to this user running VASP <----                  |
|                                                                             |
|     You have a (more or less) 'large supercell' and for larger cells it     |
|     might be more efficient to use real-space projection operators.         |
|     Therefore, try LREAL= Auto in the INCAR file.                           |
|     Mind: For very accurate calculation, you might also keep the            |
|     reciprocal projection scheme (i.e. LREAL=.FALSE.).                      |
|                                                                             |
 -----------------------------------------------------------------------------

 -----------------------------------------------------------------------------
|                                                                             |
|               ----> ADVICE to this user running VASP <----                  |
|                                                                             |
|     You enforced a specific xc type in the INCAR file but a different       |
|     type was found in the POTCAR file.                                      |
|     I HOPE YOU KNOW WHAT YOU ARE DOING!                                     |
|                                                                             |
 -----------------------------------------------------------------------------

  PAW_PBE C 08Apr2002                   :
 energy of atom  1       EATOM= -147.1560
 kinetic energy error for atom=    0.0057 (will be added to EATOM!!)
  PAW_PBE O 08Apr2002                   :
 energy of atom  2       EATOM= -432.3788
 kinetic energy error for atom=    0.0168 (will be added to EATOM!!)
  PAW_PBE Mg_pv 13Apr2007               :
 energy of atom  3       EATOM=-1056.7344
 kinetic energy error for atom=    0.0221 (will be added to EATOM!!)
  PAW_PBE O 08Apr2002                   :
 energy of atom  4       EATOM= -432.3788
 kinetic energy error for atom=    0.0168 (will be added to EATOM!!)


 POSCAR:  C  O Mg  O
  positions in direct lattice
  No initial velocities read in
 -----------------------------------------------------------------------------
|                                                                             |
|           W    W    AA    RRRRR   N    N  II  N    N   GGGG   !!!           |
|           W    W   A  A   R    R  NN   N  II  NN   N  G    G  !!!           |
|           W    W  A    A  R    R  N N  N  II  N N  N  G       !!!           |
|           W WW W  AAAAAA  RRRRR   N  N N  II  N  N N  G  GGG   !            |
|           WW  WW  A    A  R   R   N   NN  II  N   NN  G    G                |
|           W    W  A    A  R    R  N    N  II  N    N   GGGG   !!!           |
|                                                                             |
|     Specifying the vdW parameters                                           |
|     VDW_S8 = 1.747                                                          |
|     VDW_A1 = 0.536                                                          |
|     VDW_A2 = 3.073                                                          |
|     in the INCAR file will overwrite the defaults for revpbe. Please        |
|     make sure that is what you intended.                                    |
|                                                                             |
 -----------------------------------------------------------------------------

 exchange correlation table for  LEXCH =       40
   RHO(1)=    0.500       N(1)  =     2000
   RHO(2)=  100.500       N(2)  =     4000



--------------------------------------------------------------------------------------------------------


 ion  position               nearest neighbor table
   1  0.500  0.500  0.769-   2 1.15
   2  0.500  0.500  0.823-   1 1.15
   3  0.000  0.750  0.352-  35 2.11  37 2.11  38 2.11  45 2.11  54 2.11
   4  0.250  0.000  0.352-  36 2.11  37 2.11  38 2.11  46 2.11  53 2.11
   5  0.000  0.000  0.451-  37 2.11  36 2.11  35 2.11  43 2.11  52 2.11  41 2.12
   6  0.250  0.750  0.451-  38 2.11  36 2.11  35 2.11  44 2.11  51 2.11  42 2.12
   7  0.000  0.750  0.550-  49 2.11  42 2.11  58 2.11  41 2.11  35 2.12  39 2.15
   8  0.250  0.000  0.550-  57 2.11  50 2.11  42 2.11  41 2.11  36 2.12  40 2.15
   9  0.000  0.000  0.649-  39 2.11  40 2.11  47 2.11  56 2.11  41 2.11
  10  0.250  0.750  0.649-  42 2.11  40 2.11  39 2.11  48 2.11  55 2.11
  11  0.000  0.250  0.352-  43 2.11  37 2.11  45 2.11  46 2.11  62 2.11
  12  0.250  0.500  0.352-  44 2.11  38 2.11  45 2.11  46 2.11  61 2.11
  13  0.000  0.500  0.451-  45 2.11  43 2.11  44 2.11  35 2.11  60 2.11  49 2.12
  14  0.250  0.250  0.451-  46 2.11  43 2.11  44 2.11  36 2.11  59 2.11  50 2.12
  15  0.000  0.250  0.550-  49 2.11  50 2.11  66 2.11  41 2.11  43 2.12  47 2.15
  16  0.250  0.500  0.550-  65 2.11  50 2.11  42 2.11  49 2.11  44 2.13  48 2.15
  17  0.000  0.500  0.649-  48 2.10  64 2.10  49 2.11  47 2.11  39 2.11
  18  0.250  0.250  0.649-  50 2.11  47 2.11  40 2.11  48 2.11  63 2.11
  19  0.500  0.750  0.352-  51 2.11  38 2.11  53 2.11  54 2.11  61 2.11
  20  0.750  0.000  0.352-  52 2.11  37 2.11  53 2.11  54 2.11  62 2.11
  21  0.500  0.000  0.451-  53 2.11  51 2.11  52 2.11  36 2.11  59 2.11  57 2.12
  22  0.750  0.750  0.451-  54 2.11  51 2.11  52 2.11  35 2.11  60 2.11  58 2.12
  23  0.500  0.750  0.550-  65 2.11  58 2.11  42 2.11  57 2.11  51 2.13  55 2.15
  24  0.750  0.000  0.550-  57 2.11  58 2.11  66 2.11  41 2.11  52 2.12  56 2.15
  25  0.500  0.000  0.649-  55 2.10  63 2.10  57 2.11  40 2.11  56 2.11
  26  0.750  0.750  0.649-  58 2.11  56 2.11  39 2.11  55 2.11  64 2.11
  27  0.500  0.250  0.352-  59 2.11  53 2.11  46 2.11  61 2.11  62 2.11
  28  0.750  0.500  0.352-  60 2.11  54 2.11  45 2.11  61 2.11  62 2.11
  29  0.500  0.500  0.451-  61 2.11  51 2.11  59 2.11  60 2.11  44 2.11  65 2.13
  30  0.750  0.250  0.451-  62 2.11  52 2.11  59 2.11  60 2.11  43 2.11  66 2.12
  31  0.500  0.250  0.550-  65 2.11  50 2.11  66 2.11  57 2.11  59 2.13  63 2.15
  32  0.750  0.500  0.550-  65 2.11  58 2.11  66 2.11  49 2.11  60 2.13  64 2.15
  33  0.500  0.500  0.651-  48 2.12  55 2.12  63 2.12  64 2.12  65 2.14
  34  0.750  0.250  0.649-  66 2.11  56 2.11  47 2.11  64 2.11  63 2.11
  35  0.000  0.750  0.451-   3 2.11   5 2.11   6 2.11  13 2.11  22 2.11   7 2.12
  36  0.250  0.000  0.451-   4 2.11   5 2.11   6 2.11  14 2.11  21 2.11   8 2.12
  37  0.000  0.000  0.352-   5 2.11   4 2.11   3 2.11  11 2.11  20 2.11
  38  0.250  0.750  0.352-   6 2.11   4 2.11   3 2.11  12 2.11  19 2.11
  39  0.000  0.750  0.651-   9 2.11  10 2.11  26 2.11  17 2.11   7 2.15
  40  0.250  0.000  0.651-   9 2.11  10 2.11  18 2.11  25 2.11   8 2.15
  41  0.000  0.000  0.550-   9 2.11   8 2.11   7 2.11  15 2.11  24 2.11   5 2.12
  42  0.250  0.750  0.550-  10 2.11   8 2.11   7 2.11  16 2.11  23 2.11   6 2.12
  43  0.000  0.250  0.451-  11 2.11   5 2.11  13 2.11  14 2.11  30 2.11  15 2.12
  44  0.250  0.500  0.451-  12 2.11   6 2.11  13 2.11  14 2.11  29 2.11  16 2.13
  45  0.000  0.500  0.352-  13 2.11  11 2.11  12 2.11   3 2.11  28 2.11
  46  0.250  0.250  0.352-  14 2.11  11 2.11  12 2.11   4 2.11  27 2.11
  47  0.000  0.250  0.651-   9 2.11  18 2.11  34 2.11  17 2.11  15 2.15
  48  0.249  0.500  0.651-  17 2.10  10 2.11  18 2.11  33 2.12  16 2.15
  49  0.000  0.500  0.550-  17 2.11  15 2.11   7 2.11  16 2.11  32 2.11  13 2.12
  50  0.250  0.250  0.550-  18 2.11  15 2.11   8 2.11  16 2.11  31 2.11  14 2.12
  51  0.500  0.750  0.451-  19 2.11   6 2.11  21 2.11  22 2.11  29 2.11  23 2.13
  52  0.750  0.000  0.451-  20 2.11   5 2.11  21 2.11  22 2.11  30 2.11  24 2.12
  53  0.500  0.000  0.352-  21 2.11  19 2.11  20 2.11   4 2.11  27 2.11
  54  0.750  0.750  0.352-  22 2.11  19 2.11  20 2.11   3 2.11  28 2.11
  55  0.500  0.751  0.651-  25 2.10  10 2.11  26 2.11  33 2.12  23 2.15
  56  0.750  0.000  0.651-   9 2.11  26 2.11  34 2.11  25 2.11  24 2.15
  57  0.500  0.000  0.550-  25 2.11  24 2.11   8 2.11  23 2.11  31 2.11  21 2.12
  58  0.750  0.750  0.550-  26 2.11  24 2.11   7 2.11  32 2.11  23 2.11  22 2.12
  59  0.500  0.250  0.451-  27 2.11  21 2.11  14 2.11  29 2.11  30 2.11  31 2.13
  60  0.750  0.500  0.451-  28 2.11  22 2.11  13 2.11  29 2.11  30 2.11  32 2.13
  61  0.500  0.500  0.352-  29 2.11  19 2.11  27 2.11  28 2.11  12 2.11
  62  0.750  0.250  0.352-  30 2.11  20 2.11  27 2.11  28 2.11  11 2.11
  63  0.500  0.249  0.651-  25 2.10  18 2.11  34 2.11  33 2.12  31 2.15
  64  0.751  0.500  0.651-  17 2.10  26 2.11  34 2.11  33 2.12  32 2.15
  65  0.500  0.500  0.550-  16 2.11  23 2.11  31 2.11  32 2.11  29 2.13  33 2.14
  66  0.750  0.250  0.550-  34 2.11  24 2.11  15 2.11  32 2.11  31 2.11  30 2.12

  LATTYP: Found a simple tetragonal cell.
 ALAT       =     8.4409846542
 C/A-ratio  =     2.5270438657
  
  Lattice vectors:
  
 A1 = (   8.4409846542,   0.0000000000,   0.0000000000)
 A2 = (   0.0000000000,   8.4409846542,   0.0000000000)
 A3 = (   0.0000000000,   0.0000000000,  21.3307384906)


Analysis of symmetry for initial positions (statically):
=====================================================================
 Subroutine PRICEL returns:
 Original cell was already a primitive cell.
 

 Routine SETGRP: Setting up the symmetry group for a 
 simple tetragonal supercell.


 Subroutine GETGRP returns: Found  8 space group operations
 (whereof  8 operations were pure point group operations)
 out of a pool of 16 trial point group operations.


The static configuration has the point symmetry C_4v.


Analysis of symmetry for dynamics (positions and initial velocities):
=====================================================================
 Subroutine PRICEL returns:
 Original cell was already a primitive cell.
 

 Routine SETGRP: Setting up the symmetry group for a 
 simple tetragonal supercell.


 Subroutine GETGRP returns: Found  8 space group operations
 (whereof  8 operations were pure point group operations)
 out of a pool of 16 trial point group operations.


The dynamic configuration has the point symmetry C_4v.


 Subroutine INISYM returns: Found  8 space group operations
 (whereof  8 operations are pure point group operations),
 and found     1 'primitive' translations


----------------------------------------------------------------------------------------

                                     Primitive cell                                     

  volume of cell :    1519.8199

  direct lattice vectors                    reciprocal lattice vectors
     8.440984654  0.000000000  0.000000000     0.118469591  0.000000000  0.000000000
     0.000000000  8.440984654  0.000000000     0.000000000  0.118469591  0.000000000
     0.000000000  0.000000000 21.330738491     0.000000000  0.000000000  0.046880702

  length of vectors
     8.440984654  8.440984654 21.330738491     0.118469591  0.118469591  0.046880702

  position of ions in fractional coordinates (direct lattice)
     0.500000000  0.500000000  0.769225137
     0.500000000  0.500000000  0.822988855
     0.000000000  0.750000000  0.351605267
     0.250000000  0.000000000  0.351605267
     0.000000000  0.000000000  0.450535089
     0.250000000  0.750000000  0.450535089
     0.000000000  0.749939268  0.550083239
     0.250060732  0.000000000  0.550083239
     0.000000000  0.000000000  0.648745309
     0.249858327  0.750141673  0.648569547
     0.000000000  0.250000000  0.351605267
     0.250000000  0.500000000  0.351605267
     0.000000000  0.500000000  0.450535089
     0.250000000  0.250000000  0.450535089
     0.000000000  0.250060732  0.550083239
     0.250378379  0.500000000  0.550219524
     0.000000000  0.500000000  0.648615280
     0.249858327  0.249858327  0.648569547
     0.500000000  0.750000000  0.351605267
     0.750000000  0.000000000  0.351605267
     0.500000000  0.000000000  0.450535089
     0.750000000  0.750000000  0.450535089
     0.500000000  0.749621621  0.550219524
     0.749939268  0.000000000  0.550083239
     0.500000000  0.000000000  0.648615280
     0.750141673  0.750141673  0.648569547
     0.500000000  0.250000000  0.351605267
     0.750000000  0.500000000  0.351605267
     0.500000000  0.500000000  0.450535089
     0.750000000  0.250000000  0.450535089
     0.500000000  0.250378379  0.550219524
     0.749621621  0.500000000  0.550219524
     0.500000000  0.500000000  0.650616960
     0.750141673  0.249858327  0.648569547
     0.000000000  0.750000000  0.450535089
     0.250000000  0.000000000  0.450535089
     0.000000000  0.000000000  0.351605267
     0.250000000  0.750000000  0.351605267
     0.000000000  0.750218533  0.650979255
     0.249781467  0.000000000  0.650979255
     0.000000000  0.000000000  0.549809890
     0.249945770  0.750054230  0.549859113
     0.000000000  0.250000000  0.450535089
     0.250000000  0.500000000  0.450535089
     0.000000000  0.500000000  0.351605267
     0.250000000  0.250000000  0.351605267
     0.000000000  0.249781467  0.650979255
     0.248822710  0.500000000  0.650882872
     0.000000000  0.500000000  0.549762666
     0.249945770  0.249945770  0.549859113
     0.500000000  0.750000000  0.450535089
     0.750000000  0.000000000  0.450535089
     0.500000000  0.000000000  0.351605267
     0.750000000  0.750000000  0.351605267
     0.500000000  0.751177290  0.650882872
     0.750218533  0.000000000  0.650979255
     0.500000000  0.000000000  0.549762666
     0.750054230  0.750054230  0.549859113
     0.500000000  0.250000000  0.450535089
     0.750000000  0.500000000  0.450535089
     0.500000000  0.500000000  0.351605267
     0.750000000  0.250000000  0.351605267
     0.500000000  0.248822710  0.650882872
     0.751177290  0.500000000  0.650882872
     0.500000000  0.500000000  0.550231357
     0.750054230  0.249945770  0.549859113

  ion indices of the primitive-cell ions
   primitive index   ion index
                 1           1
                 2           2
                 3           3
                 4           4
                 5           5
                 6           6
                 7           7
                 8           8
                 9           9
                10          10
                11          11
                12          12
                13          13
                14          14
                15          15
                16          16
                17          17
                18          18
                19          19
                20          20
                21          21
                22          22
                23          23
                24          24
                25          25
                26          26
                27          27
                28          28
                29          29
                30          30
                31          31
                32          32
                33          33
                34          34
                35          35
                36          36
                37          37
                38          38
                39          39
                40          40
                41          41
                42          42
                43          43
                44          44
                45          45
                46          46
                47          47
                48          48
                49          49
                50          50
                51          51
                52          52
                53          53
                54          54
                55          55
                56          56
                57          57
                58          58
                59          59
                60          60
                61          61
                62          62
                63          63
                64          64
                65          65
                66          66

----------------------------------------------------------------------------------------



 KPOINTS: pymatgen v2020.8.13 with grid density = 

Automatic generation of k-mesh.
 Grid dimensions read from file:
 generate k-points for:    2    2    1

 Generating k-lattice:

  Cartesian coordinates                     Fractional coordinates (reciprocal lattice)
     0.059234796  0.000000000  0.000000000     0.500000000  0.000000000  0.000000000
     0.000000000  0.059234796  0.000000000     0.000000000  0.500000000  0.000000000
     0.000000000  0.000000000  0.046880702     0.000000000  0.000000000  1.000000000

  Length of vectors
     0.059234796  0.059234796  0.046880702

  Shift w.r.t. Gamma in fractional coordinates (k-lattice)
     0.000000000  0.000000000  0.000000000

 
 Subroutine IBZKPT returns following result:
 ===========================================
 
 Found      3 irreducible k-points:
 
 Following reciprocal coordinates:
            Coordinates               Weight
  0.000000  0.000000  0.000000      1.000000
  0.500000  0.000000  0.000000      2.000000
  0.500000  0.500000  0.000000      1.000000
 
 Following cartesian coordinates:
            Coordinates               Weight
  0.000000  0.000000  0.000000      1.000000
  0.059235  0.000000  0.000000      2.000000
  0.059235  0.059235  0.000000      1.000000
 


--------------------------------------------------------------------------------------------------------




 Dimension of arrays:
   k-points           NKPTS =      3   k-points in BZ     NKDIM =      3   number of bands    NBANDS=    320
   number of dos      NEDOS =    301   number of ions     NIONS =     66
   non local maximal  LDIM  =      5   non local SUM 2l+1 LMDIM =     13
   total plane-waves  NPLWV = 373248
   max r-space proj   IRMAX =      1   max aug-charges    IRDMAX=   5039
   dimension x,y,z NGX =    54 NGY =   54 NGZ =  128
   dimension x,y,z NGXF=   108 NGYF=  108 NGZF=  256
   support grid    NGXF=   108 NGYF=  108 NGZF=  256
   ions per type =               1   1  32  32
   NGX,Y,Z   is equivalent  to a cutoff of  10.64, 10.64,  9.98 a.u.
   NGXF,Y,Z  is equivalent  to a cutoff of  21.27, 21.27, 19.95 a.u.

 SYSTEM =  MgO-rocksalt                            
 POSCAR =   C  O Mg  O                             

 Startparameter for this run:
   NWRITE =      2    write-flag & timer
   PREC   = normal    normal or accurate (medium, high low for compatibility)
   ISTART =      0    job   : 0-new  1-cont  2-samecut
   ICHARG =      2    charge: 1-file 2-atom 10-const
   ISPIN  =      1    spin polarized calculation?
   LNONCOLLINEAR =      F non collinear calculations
   LSORBIT =      F    spin-orbit coupling
   INIWAV =      1    electr: 0-lowe 1-rand  2-diag
   LASPH  =      T    aspherical Exc in radial PAW
 Electronic Relaxation 1
   ENCUT  =  600.0 eV  44.10 Ry    6.64 a.u.  16.86 16.86 42.60*2*pi/ulx,y,z
   ENINI  =  600.0     initial cutoff
   ENAUG  =  758.8 eV  augmentation charge cutoff
   NELM   =    200;   NELMIN=  8; NELMDL= -5     # of ELM steps 
   EDIFF  = 0.1E-05   stopping-criterion for ELM
   LREAL  =      F    real-space projection
   NLSPLINE    = F    spline interpolate recip. space projectors
   LCOMPAT=      F    compatible to vasp.4.4
   GGA_COMPAT  = T    GGA compatible to vasp.4.4-vasp.4.6
   LMAXPAW     = -100 max onsite density
   LMAXMIX     =    2 max onsite mixed and CHGCAR
   VOSKOWN=      0    Vosko Wilk Nusair interpolation
   ROPT   =    0.00000   0.00000   0.00000   0.00000
 Ionic relaxation
   EDIFFG = -.1E-01   stopping-criterion for IOM
   NSW    =      0    number of steps for IOM
   NBLOCK =      1;   KBLOCK =      1    inner block; outer block 
   IBRION =     -1    ionic relax: 0-MD 1-quasi-New 2-CG
   NFREE  =      0    steps in history (QN), initial steepest desc. (CG)
   ISIF   =      2    stress and relaxation
   IWAVPR =     10    prediction:  0-non 1-charg 2-wave 3-comb
   ISYM   =      2    0-nonsym 1-usesym 2-fastsym
   LCORR  =      T    Harris-Foulkes like correction to forces

   POTIM  = 0.5000    time-step for ionic-motion
   TEIN   =    0.0    initial temperature
   TEBEG  =    0.0;   TEEND  =   0.0 temperature during run
   SMASS  =  -3.00    Nose mass-parameter (am)
   estimated Nose-frequenzy (Omega)   =  0.10E-29 period in steps = 0.13E+47 mass=  -0.163E-26a.u.
   SCALEE = 1.0000    scale energy and forces
   NPACO  =    256;   APACO  = 10.0  distance and # of slots for P.C.
   PSTRESS=    0.0 pullay stress

  Mass of Ions in am
   POMASS =  12.01 16.00 24.30 16.00
  Ionic Valenz
   ZVAL   =   4.00  6.00  8.00  6.00
  Atomic Wigner-Seitz radii
   RWIGS  =  -1.00 -1.00 -1.00 -1.00
  virtual crystal weights 
   VCA    =   1.00  1.00  1.00  1.00
   NELECT =     458.0000    total number of electrons
   NUPDOWN=      -1.0000    fix difference up-down

 DOS related values:
   EMIN   =  10.00;   EMAX   =-10.00  energy-range for DOS
   EFERMI =   0.00
   ISMEAR =     0;   SIGMA  =   0.05  broadening in eV -4-tet -1-fermi 0-gaus

 Electronic relaxation 2 (details)
   IALGO  =     58    algorithm
   LDIAG  =      T    sub-space diagonalisation (order eigenvalues)
   LSUBROT=      F    optimize rotation matrix (better conditioning)
   TURBO    =      0    0=normal 1=particle mesh
   IRESTART =      0    0=no restart 2=restart with 2 vectors
   NREBOOT  =      0    no. of reboots
   NMIN     =      0    reboot dimension
   EREF     =   0.00    reference energy to select bands
   IMIX   =      4    mixing-type and parameters
     AMIX     =   0.40;   BMIX     =  1.00
     AMIX_MAG =   1.60;   BMIX_MAG =  1.00
     AMIN     =   0.10
     WC   =   100.;   INIMIX=   1;  MIXPRE=   1;  MAXMIX= -45

 Intra band minimization:
   WEIMIN = 0.0000     energy-eigenvalue tresh-hold
   EBREAK =  0.78E-09  absolut break condition
   DEPER  =   0.30     relativ break condition  

   TIME   =   0.40     timestep for ELM

  volume/ion in A,a.u.               =      23.03       155.40
  Fermi-wavevector in a.u.,A,eV,Ry     =   1.097571  2.074108 16.390423  1.204662
  Thomas-Fermi vector in A             =   2.233933

 Write flags
   LWAVE        =      F    write WAVECAR
   LDOWNSAMPLE  =      F    k-point downsampling of WAVECAR
   LCHARG       =      F    write CHGCAR
   LVTOT        =      F    write LOCPOT, total local potential
   LVHAR        =      F    write LOCPOT, Hartree potential only
   LELF         =      F    write electronic localiz. function (ELF)
   LORBIT       =      0    0 simple, 1 ext, 2 COOP (PROOUT), +10 PAW based schemes


 Dipole corrections
   LMONO  =      F    monopole corrections only (constant potential shift)
   LDIPOL =      T    correct potential (dipole corrections)
   IDIPOL =      3    1-x, 2-y, 3-z, 4-all directions 
   EPSILON=  1.0000000 bulk dielectric constant

 Exchange correlation treatment:
   GGA     =    RE    GGA type
   LEXCH   =    40    internal setting for exchange type
   LIBXC   =     F    Libxc                    
   VOSKOWN =     0    Vosko Wilk Nusair interpolation
   LHFCALC =     F    Hartree Fock is set to
   LHFONE  =     F    Hartree Fock one center treatment
   AEXX    =    0.0000 exact exchange contribution

 Linear response parameters
   LEPSILON=     F    determine dielectric tensor
   LRPA    =     F    only Hartree local field effects (RPA)
   LNABLA  =     F    use nabla operator in PAW spheres
   LVEL    =     F    velocity operator in full k-point grid
   CSHIFT  =0.1000    complex shift for real part using Kramers Kronig
   OMEGAMAX=  -1.0    maximum frequency
   DEG_THRESHOLD= 0.2000000E-02 threshold for treating states as degnerate
   RTIME   =   -0.100 relaxation time in fs
  (WPLASMAI=    0.000 imaginary part of plasma frequency in eV, 0.658/RTIME)
   DFIELD  = 0.0000000 0.0000000 0.0000000 field for delta impulse in time

  Optional k-point grid parameters
   LKPOINTS_OPT  =     F    use optional k-point grid
   KPOINTS_OPT_MODE=     1    mode for optional k-point grid

 Orbital magnetization related:
   ORBITALMAG=     F  switch on orbital magnetization
   LCHIMAG   =     F  perturbation theory with respect to B field
   DQ        =  0.001000  dq finite difference perturbation B field
   LLRAUG    =     F  two centre corrections for induced B field



--------------------------------------------------------------------------------------------------------


 Static calculation
 charge density and potential will be updated during run
 non-spin polarized calculation
 Conjugate gradient for all bands (Freysoldt, et al. PRB 79, 241103 (2009))
 preconditioned conjugated gradient                                        
 perform sub-space diagonalisation
    before iterative eigenvector-optimisation
 modified Broyden-mixing scheme, WC =      100.0
 initial mixing is a Kerker type mixing with AMIX =  0.4000 and BMIX =      1.0000
 Hartree-type preconditioning will be used
 using additional bands           91
 reciprocal scheme for non local part
 use partial core corrections
 no Harris-corrections to forces 
 use gradient corrections 
 use of overlap-Matrix (Vanderbilt PP)
 Gauss-broadening in eV      SIGMA  =   0.05


--------------------------------------------------------------------------------------------------------


  energy-cutoff  :      600.00
  volume of cell :     1519.82
      direct lattice vectors                 reciprocal lattice vectors
     8.440984654  0.000000000  0.000000000     0.118469591  0.000000000  0.000000000
     0.000000000  8.440984654  0.000000000     0.000000000  0.118469591  0.000000000
     0.000000000  0.000000000 21.330738491     0.000000000  0.000000000  0.046880702

  length of vectors
     8.440984654  8.440984654 21.330738491     0.118469591  0.118469591  0.046880702



 k-points in units of 2pi/SCALE and weight: pymatgen v2020.8.13 with grid density = 
   0.00000000  0.00000000  0.00000000       0.250
   0.05923480  0.00000000  0.00000000       0.500
   0.05923480  0.05923480  0.00000000       0.250

 k-points in reciprocal lattice and weights: pymatgen v2020.8.13 with grid density = 
   0.00000000  0.00000000  0.00000000       0.250
   0.50000000  0.00000000  0.00000000       0.500
   0.50000000  0.50000000  0.00000000       0.250

 position of ions in fractional coordinates (direct lattice) 
   0.50000000  0.50000000  0.76922514
   0.50000000  0.50000000  0.82298886
   0.00000000  0.75000000  0.35160527
   0.25000000  0.00000000  0.35160527
   0.00000000  0.00000000  0.45053509
   0.25000000  0.75000000  0.45053509
   0.00000000  0.74993927  0.55008324
   0.25006073  0.00000000  0.55008324
   0.00000000  0.00000000  0.64874531
   0.24985833  0.75014167  0.64856955
   0.00000000  0.25000000  0.35160527
   0.25000000  0.50000000  0.35160527
   0.00000000  0.50000000  0.45053509
   0.25000000  0.25000000  0.45053509
   0.00000000  0.25006073  0.55008324
   0.25037838  0.50000000  0.55021952
   0.00000000  0.50000000  0.64861528
   0.24985833  0.24985833  0.64856955
   0.50000000  0.75000000  0.35160527
   0.75000000  0.00000000  0.35160527
   0.50000000  0.00000000  0.45053509
   0.75000000  0.75000000  0.45053509
   0.50000000  0.74962162  0.55021952
   0.74993927  0.00000000  0.55008324
   0.50000000  0.00000000  0.64861528
   0.75014167  0.75014167  0.64856955
   0.50000000  0.25000000  0.35160527
   0.75000000  0.50000000  0.35160527
   0.50000000  0.50000000  0.45053509
   0.75000000  0.25000000  0.45053509
   0.50000000  0.25037838  0.55021952
   0.74962162  0.50000000  0.55021952
   0.50000000  0.50000000  0.65061696
   0.75014167  0.24985833  0.64856955
   0.00000000  0.75000000  0.45053509
   0.25000000  0.00000000  0.45053509
   0.00000000  0.00000000  0.35160527
   0.25000000  0.75000000  0.35160527
   0.00000000  0.75021853  0.65097926
   0.24978147  0.00000000  0.65097926
   0.00000000  0.00000000  0.54980989
   0.24994577  0.75005423  0.54985911
   0.00000000  0.25000000  0.45053509
   0.25000000  0.50000000  0.45053509
   0.00000000  0.50000000  0.35160527
   0.25000000  0.25000000  0.35160527
   0.00000000  0.24978147  0.65097926
   0.24882271  0.50000000  0.65088287
   0.00000000  0.50000000  0.54976267
   0.24994577  0.24994577  0.54985911
   0.50000000  0.75000000  0.45053509
   0.75000000  0.00000000  0.45053509
   0.50000000  0.00000000  0.35160527
   0.75000000  0.75000000  0.35160527
   0.50000000  0.75117729  0.65088287
   0.75021853  0.00000000  0.65097926
   0.50000000  0.00000000  0.54976267
   0.75005423  0.75005423  0.54985911
   0.50000000  0.25000000  0.45053509
   0.75000000  0.50000000  0.45053509
   0.50000000  0.50000000  0.35160527
   0.75000000  0.25000000  0.35160527
   0.50000000  0.24882271  0.65088287
   0.75117729  0.50000000  0.65088287
   0.50000000  0.50000000  0.55023136
   0.75005423  0.24994577  0.54985911

 position of ions in cartesian coordinates  (Angst):
   4.22049233  4.22049233 16.40814023
   4.22049233  4.22049233 17.55496005
   0.00000000  6.33073849  7.50000000
   2.11024616  0.00000000  7.50000000
   0.00000000  0.00000000  9.61024616
   2.11024616  6.33073849  9.61024616
   0.00000000  6.33022585 11.73368172
   2.11075880  0.00000000 11.73368172
   0.00000000  0.00000000 13.83821654
   2.10905031  6.33193435 13.83446740
   0.00000000  2.11024616  7.50000000
   2.11024616  4.22049233  7.50000000
   0.00000000  4.22049233  9.61024616
   2.11024616  2.11024616  9.61024616
   0.00000000  2.11075880 11.73368172
   2.11344006  4.22049233 11.73658877
   0.00000000  4.22049233 13.83544293
   2.10905031  2.10905031 13.83446740
   4.22049233  6.33073849  7.50000000
   6.33073849  0.00000000  7.50000000
   4.22049233  0.00000000  9.61024616
   6.33073849  6.33073849  9.61024616
   4.22049233  6.32754460 11.73658877
   6.33022585  0.00000000 11.73368172
   4.22049233  0.00000000 13.83544293
   6.33193435  6.33193435 13.83446740
   4.22049233  2.11024616  7.50000000
   6.33073849  4.22049233  7.50000000
   4.22049233  4.22049233  9.61024616
   6.33073849  2.11024616  9.61024616
   4.22049233  2.11344006 11.73658877
   6.32754460  4.22049233 11.73658877
   4.22049233  4.22049233 13.87814023
   6.33193435  2.10905031 13.83446740
   0.00000000  6.33073849  9.61024616
   2.11024616  0.00000000  9.61024616
   0.00000000  0.00000000  7.50000000
   2.11024616  6.33073849  7.50000000
   0.00000000  6.33258312 13.88586825
   2.10840153  0.00000000 13.88586825
   0.00000000  0.00000000 11.72785099
   2.10978841  6.33119624 11.72890095
   0.00000000  2.11024616  9.61024616
   2.11024616  4.22049233  9.61024616
   0.00000000  4.22049233  7.50000000
   2.11024616  2.11024616  7.50000000
   0.00000000  2.10840153 13.88586825
   2.10030867  4.22049233 13.88381232
   0.00000000  4.22049233 11.72684365
   2.10978841  2.10978841 11.72890095
   4.22049233  6.33073849  9.61024616
   6.33073849  0.00000000  9.61024616
   4.22049233  0.00000000  7.50000000
   6.33073849  6.33073849  7.50000000
   4.22049233  6.34067598 13.88381232
   6.33258312  0.00000000 13.88586825
   4.22049233  0.00000000 11.72684365
   6.33119624  6.33119624 11.72890095
   4.22049233  2.11024616  9.61024616
   6.33073849  4.22049233  9.61024616
   4.22049233  4.22049233  7.50000000
   6.33073849  2.11024616  7.50000000
   4.22049233  2.10030867 13.88381232
   6.34067598  4.22049233 13.88381232
   4.22049233  4.22049233 11.73684118
   6.33119624  2.10978841 11.72890095



--------------------------------------------------------------------------------------------------------


 k-point   1 :   0.0000 0.0000 0.0000  plane waves:   50745
 k-point   2 :   0.5000 0.0000 0.0000  plane waves:   50798
 k-point   3 :   0.5000 0.5000 0.0000  plane waves:   50752

 maximum and minimum number of plane-waves per node :     12720    12632

 maximum number of plane-waves:     50798
 maximum index in each direction: 
   IXMAX=   16   IYMAX=   16   IZMAX=   42
   IXMIN=  -17   IYMIN=  -17   IZMIN=  -42


 parallel 3D FFT for wavefunctions:
    minimum data exchange during FFTs selected (reduces bandwidth)
 parallel 3D FFT for charge:
    minimum data exchange during FFTs selected (reduces bandwidth)


 total amount of memory used by VASP MPI-rank0    78528. kBytes
=======================================================================

   base      :      30000. kBytes
   nonl-proj :      29343. kBytes
   fftplans  :       3857. kBytes
   grid      :       5885. kBytes
   one-center:        137. kBytes
   wavefun   :       9306. kBytes

     INWAV:  cpu time      0.0000: real time      0.0000
 Broyden mixing: mesh for mixing (old mesh)
   NGX = 33   NGY = 33   NGZ = 85
  (NGX  =108   NGY  =108   NGZ  =256)
  gives a total of  92565 points

 initial charge density was supplied:
 charge density of overlapping atoms calculated
 number of electron     458.0000000 magnetization 
 keeping initial charge density in first step


--------------------------------------------------------------------------------------------------------


 Maximum index for augmentation-charges          334 (set IRDMAX)


--------------------------------------------------------------------------------------------------------


 First call to EWALD:  gamma=   0.154
 Maximum number of real-space cells 4x 4x 2
 Maximum number of reciprocal cells 2x 2x 5

    FEWALD:  cpu time      0.0034: real time      0.0034


--------------------------------------- Iteration      1(   1)  ---------------------------------------


    POTLOK:  cpu time      0.0455: real time      0.0466
    SETDIJ:  cpu time      0.1535: real time      0.1536
    TRIAL :  cpu time      5.3836: real time      5.4807
    CORREC:  cpu time      0.0014: real time      0.0014
    --------------------------------------------
      LOOP:  cpu time      5.5858: real time      5.7196

 eigenvalue-minimisations  :  2304
 total energy-change (2. order) : 0.4173388E+04  (-0.3066541E+05)
 number of electron     458.0000000 magnetization 
 augmentation part      458.0000000 magnetization 

 DIPCOR: dipole corrections for dipol
 direction  3 min pos     1,
 dipolmoment           0.000000      0.000000     -0.000316 electrons x Angstroem
 Tr[quadrupol]     -6318.707748

 energy correction for charged system         0.000000 eV
 dipol+quadrupol energy correction           -0.000000 eV
 added-field ion interaction          0.002592 eV  (added to PSCEN)


 Free energy of the ion-electron system (eV)
  ---------------------------------------------------
  alpha Z        PSCENC =       907.96669621
  Ewald energy   TEWEN  =    136939.22173565
  -Hartree energ DENC   =   -173038.59108495
  -exchange      EXHF   =         0.00000000
  -V(xc)+E(xc)   XCENC  =      1766.52641381
  PAW double counting   =     32340.89285313   -36127.75492224
  entropy T*S    EENTRO =        -0.02407279
  eigenvalues    EBANDS =     -6811.42485741
  atomic energy  EATOM  =     48196.57542979
  ---------------------------------------------------
  free energy    TOTEN  =      4173.38819119 eV

  energy without entropy =     4173.41226398  energy(sigma->0) =     4173.40022759


--------------------------------------------------------------------------------------------------------




--------------------------------------- Iteration      1(   2)  ---------------------------------------


    TRIAL :  cpu time      2.2444: real time      2.2449
    CORREC:  cpu time      0.0003: real time      0.0003
    --------------------------------------------
      LOOP:  cpu time      2.2508: real time      2.2595

 eigenvalue-minimisations  :  2304
 total energy-change (2. order) :-0.4288782E+04  (-0.4215096E+04)
 number of electron     458.0000000 magnetization 
 augmentation part      458.0000000 magnetization 

 DIPCOR: dipole corrections for dipol
 direction  3 min pos     1,
 dipolmoment           0.000000      0.000000     -0.000316 electrons x Angstroem
 Tr[quadrupol]     -6318.707748

 energy correction for charged system         0.000000 eV
 dipol+quadrupol energy correction           -0.000000 eV
 added-field ion interaction          0.002592 eV  (added to PSCEN)


 Free energy of the ion-electron system (eV)
  ---------------------------------------------------
  alpha Z        PSCENC =       907.96669621
  Ewald energy   TEWEN  =    136939.22173565
  -Hartree energ DENC   =   -173038.59108495
  -exchange      EXHF   =         0.00000000
  -V(xc)+E(xc)   XCENC  =      1766.52641381
  PAW double counting   =     32340.89285313   -36127.75492224
  entropy T*S    EENTRO =        -0.00000000
  eigenvalues    EBANDS =    -11100.23134317
  atomic energy  EATOM  =     48196.57542979
  ---------------------------------------------------
  free energy    TOTEN  =      -115.39422178 eV

  energy without entropy =     -115.39422178  energy(sigma->0) =     -115.39422178


--------------------------------------------------------------------------------------------------------




--------------------------------------- Iteration      1(   3)  ---------------------------------------


    TRIAL :  cpu time      2.3612: real time      2.3616
    CORREC:  cpu time      0.0003: real time      0.0003
    --------------------------------------------
      LOOP:  cpu time      2.3666: real time      2.3765

 eigenvalue-minimisations  :  2304
 total energy-change (2. order) :-0.3107461E+03  (-0.3087009E+03)
 number of electron     458.0000000 magnetization 
 augmentation part      458.0000000 magnetization 

 DIPCOR: dipole corrections for dipol
 direction  3 min pos     1,
 dipolmoment           0.000000      0.000000     -0.000316 electrons x Angstroem
 Tr[quadrupol]     -6318.707748

 energy correction for charged system         0.000000 eV
 dipol+quadrupol energy correction           -0.000000 eV
 added-field ion interaction          0.002592 eV  (added to PSCEN)


 Free energy of the ion-electron system (eV)
  ---------------------------------------------------
  alpha Z        PSCENC =       907.96669621
  Ewald energy   TEWEN  =    136939.22173565
  -Hartree energ DENC   =   -173038.59108495
  -exchange      EXHF   =         0.00000000
  -V(xc)+E(xc)   XCENC  =      1766.52641381
  PAW double counting   =     32340.89285313   -36127.75492224
  entropy T*S    EENTRO =        -0.00000000
  eigenvalues    EBANDS =    -11410.97741549
  atomic energy  EATOM  =     48196.57542979
  ---------------------------------------------------
  free energy    TOTEN  =      -426.14029410 eV

  energy without entropy =     -426.14029410  energy(sigma->0) =     -426.14029410


--------------------------------------------------------------------------------------------------------




--------------------------------------- Iteration      1(   4)  ---------------------------------------


    TRIAL :  cpu time      2.3599: real time      2.3610
    CORREC:  cpu time      0.0003: real time      0.0003
    --------------------------------------------
      LOOP:  cpu time      2.3743: real time      2.3755

 eigenvalue-minimisations  :  2368
 total energy-change (2. order) :-0.5967234E+01  (-0.5960302E+01)
 number of electron     458.0000000 magnetization 
 augmentation part      458.0000000 magnetization 

 DIPCOR: dipole corrections for dipol
 direction  3 min pos     1,
 dipolmoment           0.000000      0.000000     -0.000316 electrons x Angstroem
 Tr[quadrupol]     -6318.707748

 energy correction for charged system         0.000000 eV
 dipol+quadrupol energy correction           -0.000000 eV
 added-field ion interaction          0.002592 eV  (added to PSCEN)


 Free energy of the ion-electron system (eV)
  ---------------------------------------------------
  alpha Z        PSCENC =       907.96669621
  Ewald energy   TEWEN  =    136939.22173565
  -Hartree energ DENC   =   -173038.59108495
  -exchange      EXHF   =         0.00000000
  -V(xc)+E(xc)   XCENC  =      1766.52641381
  PAW double counting   =     32340.89285313   -36127.75492224
  entropy T*S    EENTRO =        -0.00000000
  eigenvalues    EBANDS =    -11416.94464942
  atomic energy  EATOM  =     48196.57542979
  ---------------------------------------------------
  free energy    TOTEN  =      -432.10752803 eV

  energy without entropy =     -432.10752803  energy(sigma->0) =     -432.10752803


--------------------------------------------------------------------------------------------------------




--------------------------------------- Iteration      1(   5)  ---------------------------------------


    TRIAL :  cpu time      2.3826: real time      2.3831
    CORREC:  cpu time      0.0003: real time      0.0003
    CHARGE:  cpu time      0.0751: real time      0.0757
    --------------------------------------------
      LOOP:  cpu time      2.4630: real time      2.4734

 eigenvalue-minimisations  :  2304
 total energy-change (2. order) :-0.7704313E-01  (-0.7704044E-01)
 number of electron     457.9999385 magnetization 
 augmentation part      159.7019420 magnetization 

 DIPCOR: dipole corrections for dipol
 direction  3 min pos     1,
 dipolmoment           0.000000      0.000000     -0.000316 electrons x Angstroem
 Tr[quadrupol]     -6318.707748

 energy correction for charged system         0.000000 eV
 dipol+quadrupol energy correction           -0.000000 eV
 added-field ion interaction          0.002592 eV  (added to PSCEN)


 Free energy of the ion-electron system (eV)
  ---------------------------------------------------
  alpha Z        PSCENC =       907.96669621
  Ewald energy   TEWEN  =    136939.22173565
  -Hartree energ DENC   =   -173038.59108495
  -exchange      EXHF   =         0.00000000
  -V(xc)+E(xc)   XCENC  =      1766.52641381
  PAW double counting   =     32340.89285313   -36127.75492224
  entropy T*S    EENTRO =        -0.00000000
  eigenvalues    EBANDS =    -11417.02169255
  atomic energy  EATOM  =     48196.57542979
  ---------------------------------------------------
  free energy    TOTEN  =      -432.18457116 eV

  energy without entropy =     -432.18457116  energy(sigma->0) =     -432.18457116


--------------------------------------------------------------------------------------------------------




--------------------------------------- Iteration      1(   6)  ---------------------------------------


    POTLOK:  cpu time      0.0309: real time      0.0309
    SETDIJ:  cpu time      0.1894: real time      0.1897
    TRIAL :  cpu time      0.6710: real time      0.6716
    CORREC:  cpu time      0.5260: real time      0.5263
    CHARGE:  cpu time      0.0542: real time      0.0542
    --------------------------------------------
      LOOP:  cpu time      1.4854: real time      1.4870

 eigenvalue-minimisations  :     0
 total energy-change (2. order) : 0.1727728E+03  (-0.9558612E+02)
 number of electron     457.9999277 magnetization 
 augmentation part      156.7870747 magnetization 

 DIPCOR: dipole corrections for dipol
 direction  3 min pos     1,
 dipolmoment           0.000000      0.000000      0.177664 electrons x Angstroem
 Tr[quadrupol]     -6356.137713

 energy correction for charged system         0.000000 eV
 dipol+quadrupol energy correction           -0.001879 eV
 added-field ion interaction         -1.457396 eV  (added to PSCEN)


 Free energy of the ion-electron system (eV)
  ---------------------------------------------------
  alpha Z        PSCENC =       904.31537417
  Ewald energy   TEWEN  =    136939.22173565
  -Hartree energ DENC   =   -176923.08400367
  -exchange      EXHF   =         0.00000000
  -V(xc)+E(xc)   XCENC  =      1890.19523800
  PAW double counting   =     37144.06961868   -40890.19814777
  entropy T*S    EENTRO =        -0.00000000
  eigenvalues    EBANDS =     -7520.50701919
  atomic energy  EATOM  =     48196.57542979
  ---------------------------------------------------
  free energy    TOTEN  =      -259.41177434 eV

  energy without entropy =     -259.41177434  energy(sigma->0) =     -259.41177434


--------------------------------------------------------------------------------------------------------




--------------------------------------- Iteration      1(   7)  ---------------------------------------


    POTLOK:  cpu time      0.0292: real time      0.0292
    SETDIJ:  cpu time      0.1879: real time      0.1879
    TRIAL :  cpu time      0.6011: real time      0.6013
    CORREC:  cpu time      0.5144: real time      0.5144
    CHARGE:  cpu time      0.0548: real time      0.0548
    --------------------------------------------
      LOOP:  cpu time      1.3925: real time      1.4021

 eigenvalue-minimisations  :     0
 total energy-change (2. order) :-0.9595854E+02  (-0.6722704E+01)
 number of electron     457.9999268 magnetization 
 augmentation part      154.9294647 magnetization 

 DIPCOR: dipole corrections for dipol
 direction  3 min pos     1,
 dipolmoment           0.000000      0.000000      0.158117 electrons x Angstroem
 Tr[quadrupol]     -6361.156513

 energy correction for charged system         0.000000 eV
 dipol+quadrupol energy correction           -0.001488 eV
 added-field ion interaction         -1.297050 eV  (added to PSCEN)


 Free energy of the ion-electron system (eV)
  ---------------------------------------------------
  alpha Z        PSCENC =       906.24996584
  Ewald energy   TEWEN  =    136939.22173565
  -Hartree energ DENC   =   -175087.36157848
  -exchange      EXHF   =         0.00000000
  -V(xc)+E(xc)   XCENC  =      1823.44772978
  PAW double counting   =     36033.28677809   -39848.98919944
  entropy T*S    EENTRO =        -0.00000000
  eigenvalues    EBANDS =     -9317.80117404
  atomic energy  EATOM  =     48196.57542979
  ---------------------------------------------------
  free energy    TOTEN  =      -355.37031281 eV

  energy without entropy =     -355.37031281  energy(sigma->0) =     -355.37031281


--------------------------------------------------------------------------------------------------------




--------------------------------------- Iteration      1(   8)  ---------------------------------------


    POTLOK:  cpu time      0.0291: real time      0.0291
    SETDIJ:  cpu time      0.1866: real time      0.1866
    TRIAL :  cpu time      0.6025: real time      0.6027
    CORREC:  cpu time      0.5138: real time      0.5140
    CHARGE:  cpu time      0.0548: real time      0.0548
    --------------------------------------------
      LOOP:  cpu time      1.4007: real time      1.4013

 eigenvalue-minimisations  :     0
 total energy-change (2. order) :-0.6737574E+01  (-0.4169120E+01)
 number of electron     457.9999251 magnetization 
 augmentation part      155.0370054 magnetization 

 DIPCOR: dipole corrections for dipol
 direction  3 min pos     1,
 dipolmoment           0.000000      0.000000      0.103706 electrons x Angstroem
 Tr[quadrupol]     -6359.468900

 energy correction for charged system         0.000000 eV
 dipol+quadrupol energy correction           -0.000640 eV
 added-field ion interaction         -0.850714 eV  (added to PSCEN)


 Free energy of the ion-electron system (eV)
  ---------------------------------------------------
  alpha Z        PSCENC =       906.80495572
  Ewald energy   TEWEN  =    136939.22173565
  -Hartree energ DENC   =   -174978.59060828
  -exchange      EXHF   =         0.00000000
  -V(xc)+E(xc)   XCENC  =      1814.04788118
  PAW double counting   =     35920.87307643   -39667.13300053
  entropy T*S    EENTRO =        -0.00000000
  eigenvalues    EBANDS =     -9493.90735641
  atomic energy  EATOM  =     48196.57542979
  ---------------------------------------------------
  free energy    TOTEN  =      -362.10788645 eV

  energy without entropy =     -362.10788645  energy(sigma->0) =     -362.10788645


--------------------------------------------------------------------------------------------------------




--------------------------------------- Iteration      1(   9)  ---------------------------------------


    POTLOK:  cpu time      0.0290: real time      0.0290
    SETDIJ:  cpu time      0.1865: real time      0.1865
    TRIAL :  cpu time      0.6070: real time      0.6070
    CORREC:  cpu time      0.5267: real time      0.5273
    CHARGE:  cpu time      0.0626: real time      0.0626
    --------------------------------------------
      LOOP:  cpu time      1.4171: real time      1.4270

 eigenvalue-minimisations  :     0
 total energy-change (2. order) :-0.4088982E+01  (-0.1705229E+01)
 number of electron     457.9999250 magnetization 
 augmentation part      155.0560238 magnetization 

 DIPCOR: dipole corrections for dipol
 direction  3 min pos     1,
 dipolmoment           0.000000      0.000000      0.130434 electrons x Angstroem
 Tr[quadrupol]     -6352.398139

 energy correction for charged system         0.000000 eV
 dipol+quadrupol energy correction           -0.001013 eV
 added-field ion interaction         -1.069961 eV  (added to PSCEN)


 Free energy of the ion-electron system (eV)
  ---------------------------------------------------
  alpha Z        PSCENC =       907.24937227
  Ewald energy   TEWEN  =    136939.22173565
  -Hartree energ DENC   =   -174849.58337609
  -exchange      EXHF   =         0.00000000
  -V(xc)+E(xc)   XCENC  =      1813.51029295
  PAW double counting   =     35835.51966508   -39616.79484885
  entropy T*S    EENTRO =        -0.00000000
  eigenvalues    EBANDS =     -9591.89513916
  atomic energy  EATOM  =     48196.57542979
  ---------------------------------------------------
  free energy    TOTEN  =      -366.19686837 eV

  energy without entropy =     -366.19686837  energy(sigma->0) =     -366.19686837


--------------------------------------------------------------------------------------------------------




--------------------------------------- Iteration      1(  10)  ---------------------------------------


    POTLOK:  cpu time      0.0289: real time      0.0289
    SETDIJ:  cpu time      0.1868: real time      0.1868
    TRIAL :  cpu time      0.5993: real time      0.5995
    CORREC:  cpu time      0.5123: real time      0.5123
    CHARGE:  cpu time      0.0540: real time      0.0541
    --------------------------------------------
      LOOP:  cpu time      1.3956: real time      1.3961

 eigenvalue-minimisations  :     0
 total energy-change (2. order) :-0.1718056E+01  (-0.5882261E+00)
 number of electron     457.9999256 magnetization 
 augmentation part      155.0152249 magnetization 

 DIPCOR: dipole corrections for dipol
 direction  3 min pos     1,
 dipolmoment           0.000000      0.000000      0.158053 electrons x Angstroem
 Tr[quadrupol]     -6351.034716

 energy correction for charged system         0.000000 eV
 dipol+quadrupol energy correction           -0.001487 eV
 added-field ion interaction         -1.296526 eV  (added to PSCEN)


 Free energy of the ion-electron system (eV)
  ---------------------------------------------------
  alpha Z        PSCENC =       906.94543725
  Ewald energy   TEWEN  =    136939.22173565
  -Hartree energ DENC   =   -174671.84647913
  -exchange      EXHF   =         0.00000000
  -V(xc)+E(xc)   XCENC  =      1811.81413555
  PAW double counting   =     35721.57996122   -39511.09737721
  entropy T*S    EENTRO =        -0.00000000
  eigenvalues    EBANDS =     -9761.10776788
  atomic energy  EATOM  =     48196.57542979
  ---------------------------------------------------
  free energy    TOTEN  =      -367.91492477 eV

  energy without entropy =     -367.91492477  energy(sigma->0) =     -367.91492477


--------------------------------------------------------------------------------------------------------




--------------------------------------- Iteration      1(  11)  ---------------------------------------


    POTLOK:  cpu time      0.0290: real time      0.0291
    SETDIJ:  cpu time      0.1858: real time      0.1860
    TRIAL :  cpu time      0.5995: real time      0.5996
    CORREC:  cpu time      0.5126: real time      0.5127
    CHARGE:  cpu time      0.0542: real time      0.0542
    --------------------------------------------
      LOOP:  cpu time      1.3887: real time      1.3959

 eigenvalue-minimisations  :     0
 total energy-change (2. order) :-0.5895655E+00  (-0.2116638E+00)
 number of electron     457.9999261 magnetization 
 augmentation part      155.1071074 magnetization 

 DIPCOR: dipole corrections for dipol
 direction  3 min pos     1,
 dipolmoment           0.000000      0.000000      0.145334 electrons x Angstroem
 Tr[quadrupol]     -6351.801432

 energy correction for charged system         0.000000 eV
 dipol+quadrupol energy correction           -0.001257 eV
 added-field ion interaction         -1.192187 eV  (added to PSCEN)


 Free energy of the ion-electron system (eV)
  ---------------------------------------------------
  alpha Z        PSCENC =       906.70380229
  Ewald energy   TEWEN  =    136939.22173565
  -Hartree energ DENC   =   -174603.89639661
  -exchange      EXHF   =         0.00000000
  -V(xc)+E(xc)   XCENC  =      1810.79378105
  PAW double counting   =     35659.97402876   -39441.67774646
  entropy T*S    EENTRO =        -0.00000000
  eigenvalues    EBANDS =     -9836.19912472
  atomic energy  EATOM  =     48196.57542979
  ---------------------------------------------------
  free energy    TOTEN  =      -368.50449025 eV

  energy without entropy =     -368.50449025  energy(sigma->0) =     -368.50449025


--------------------------------------------------------------------------------------------------------




--------------------------------------- Iteration      1(  12)  ---------------------------------------


    POTLOK:  cpu time      0.0290: real time      0.0290
    SETDIJ:  cpu time      0.1864: real time      0.1864
    TRIAL :  cpu time      0.6001: real time      0.6004
    CORREC:  cpu time      0.5119: real time      0.5120
    CHARGE:  cpu time      0.0545: real time      0.0545
    --------------------------------------------
      LOOP:  cpu time      1.3867: real time      1.3965

 eigenvalue-minimisations  :     0
 total energy-change (2. order) :-0.2116554E+00  (-0.7277678E-01)
 number of electron     457.9999262 magnetization 
 augmentation part      155.2090869 magnetization 

 DIPCOR: dipole corrections for dipol
 direction  3 min pos     1,
 dipolmoment           0.000000      0.000000      0.133532 electrons x Angstroem
 Tr[quadrupol]     -6352.500608

 energy correction for charged system         0.000000 eV
 dipol+quadrupol energy correction           -0.001062 eV
 added-field ion interaction         -1.095380 eV  (added to PSCEN)


 Free energy of the ion-electron system (eV)
  ---------------------------------------------------
  alpha Z        PSCENC =       906.76965994
  Ewald energy   TEWEN  =    136939.22173565
  -Hartree energ DENC   =   -174626.43554351
  -exchange      EXHF   =         0.00000000
  -V(xc)+E(xc)   XCENC  =      1811.03416030
  PAW double counting   =     35646.49921061   -39426.37947461
  entropy T*S    EENTRO =        -0.00000000
  eigenvalues    EBANDS =     -9816.00132377
  atomic energy  EATOM  =     48196.57542979
  ---------------------------------------------------
  free energy    TOTEN  =      -368.71614560 eV

  energy without entropy =     -368.71614560  energy(sigma->0) =     -368.71614560


--------------------------------------------------------------------------------------------------------




--------------------------------------- Iteration      1(  13)  ---------------------------------------


    POTLOK:  cpu time      0.0292: real time      0.0292
    SETDIJ:  cpu time      0.1861: real time      0.1861
    TRIAL :  cpu time      0.6019: real time      0.6022
    CORREC:  cpu time      0.5126: real time      0.5127
    CHARGE:  cpu time      0.0546: real time      0.0546
    --------------------------------------------
      LOOP:  cpu time      1.3903: real time      1.3995

 eigenvalue-minimisations  :     0
 total energy-change (2. order) :-0.7280028E-01  (-0.3182218E-01)
 number of electron     457.9999262 magnetization 
 augmentation part      155.2435436 magnetization 

 DIPCOR: dipole corrections for dipol
 direction  3 min pos     1,
 dipolmoment           0.000000      0.000000      0.128624 electrons x Angstroem
 Tr[quadrupol]     -6352.913844

 energy correction for charged system         0.000000 eV
 dipol+quadrupol energy correction           -0.000985 eV
 added-field ion interaction         -1.055116 eV  (added to PSCEN)


 Free energy of the ion-electron system (eV)
  ---------------------------------------------------
  alpha Z        PSCENC =       906.87200899
  Ewald energy   TEWEN  =    136939.22173565
  -Hartree energ DENC   =   -174655.63317953
  -exchange      EXHF   =         0.00000000
  -V(xc)+E(xc)   XCENC  =      1811.33597108
  PAW double counting   =     35646.46102488   -39429.19204896
  entropy T*S    EENTRO =        -0.00000000
  eigenvalues    EBANDS =     -9784.42988776
  atomic energy  EATOM  =     48196.57542979
  ---------------------------------------------------
  free energy    TOTEN  =      -368.78894588 eV

  energy without entropy =     -368.78894588  energy(sigma->0) =     -368.78894588


--------------------------------------------------------------------------------------------------------




--------------------------------------- Iteration      1(  14)  ---------------------------------------


    POTLOK:  cpu time      0.0292: real time      0.0292
    SETDIJ:  cpu time      0.1861: real time      0.1861
    TRIAL :  cpu time      0.5992: real time      0.5993
    CORREC:  cpu time      0.5120: real time      0.5122
    CHARGE:  cpu time      0.0542: real time      0.0542
    --------------------------------------------
      LOOP:  cpu time      1.3853: real time      1.3955

 eigenvalue-minimisations  :     0
 total energy-change (2. order) :-0.3185395E-01  (-0.1494532E-01)
 number of electron     457.9999262 magnetization 
 augmentation part      155.2288210 magnetization 

 DIPCOR: dipole corrections for dipol
 direction  3 min pos     1,
 dipolmoment           0.000000      0.000000      0.127306 electrons x Angstroem
 Tr[quadrupol]     -6353.235966

 energy correction for charged system         0.000000 eV
 dipol+quadrupol energy correction           -0.000965 eV
 added-field ion interaction         -1.044306 eV  (added to PSCEN)


 Free energy of the ion-electron system (eV)
  ---------------------------------------------------
  alpha Z        PSCENC =       906.91372440
  Ewald energy   TEWEN  =    136939.22173565
  -Hartree energ DENC   =   -174668.91923075
  -exchange      EXHF   =         0.00000000
  -V(xc)+E(xc)   XCENC  =      1811.34735359
  PAW double counting   =     35646.95997386   -39431.25126156
  entropy T*S    EENTRO =        -0.00000000
  eigenvalues    EBANDS =     -9769.66852482
  atomic energy  EATOM  =     48196.57542979
  ---------------------------------------------------
  free energy    TOTEN  =      -368.82079983 eV

  energy without entropy =     -368.82079983  energy(sigma->0) =     -368.82079983


--------------------------------------------------------------------------------------------------------




--------------------------------------- Iteration      1(  15)  ---------------------------------------


    POTLOK:  cpu time      0.0290: real time      0.0291
    SETDIJ:  cpu time      0.1863: real time      0.1863
    TRIAL :  cpu time      0.5992: real time      0.5994
    CORREC:  cpu time      0.5119: real time      0.5119
[...]
    273       7.5911      0.00000
    274       7.5911      0.00000
    275       7.6954      0.00000
    276       7.8415      0.00000
    277       8.0061      0.00000
    278       8.0062      0.00000
    279       8.0153      0.00000
    280       8.1674      0.00000
    281       8.1675      0.00000
    282       8.1743      0.00000
    283       8.1774      0.00000
    284       8.1902      0.00000
    285       8.1942      0.00000
    286       8.1999      0.00000
    287       8.1999      0.00000
    288       8.4641      0.00000
    289       8.4644      0.00000
    290       8.4656      0.00000
    291       8.6318      0.00000
    292       8.6461      0.00000
    293       8.6784      0.00000
    294       8.6892      0.00000
    295       8.7236      0.00000
    296       8.7559      0.00000
    297       8.7613      0.00000
    298       8.7710      0.00000
    299       8.7714      0.00000
    300       8.9909      0.00000
    301       9.0453      0.00000
    302       9.0879      0.00000
    303       9.0888      0.00000
    304       9.2138      0.00000
    305       9.3782      0.00000
    306       9.4544      0.00000
    307       9.5336      0.00000
    308       9.5705      0.00000
    309       9.6512      0.00000
    310       9.6708      0.00000
    311       9.6779      0.00000
    312       9.9527      0.00000
    313      10.0384      0.00000
    314      10.0471      0.00000
    315      10.0536      0.00000
    316      10.0766      0.00000
    317      10.4547      0.00000
    318      10.5014      0.00000
    319      10.5956      0.00000
    320      10.6018      0.00000


--------------------------------------------------------------------------------------------------------


 soft charge-density along one line, spin component           1
         0         1         2         3         4         5         6         7         8         9
 total charge-density along one line

 pseudopotential strength for first ion, spin component:           1
 10.254  13.638   0.000   0.037   0.000  -0.000  -0.106  -0.000
 13.638  18.137   0.000   0.049   0.000  -0.000  -0.140  -0.000
  0.000   0.000  -4.280  -0.000  -0.000   8.369   0.000   0.000
  0.037   0.049  -0.000  -4.338  -0.000   0.000   8.464   0.000
  0.000   0.000  -0.000  -0.000  -4.280   0.000   0.000   8.369
 -0.000  -0.000   8.369   0.000   0.000 -18.494  -0.000  -0.000
 -0.106  -0.140   0.000   8.464   0.000  -0.000 -18.649  -0.000
 -0.000  -0.000   0.000   0.000   8.369  -0.000  -0.000 -18.494
 total augmentation occupancy for first ion, spin component:           1
  7.782  -3.554   0.000   2.032   0.000   0.000   0.381   0.000
 -3.554   1.987   0.000  -1.555   0.000   0.000  -0.233  -0.000
  0.000   0.000   0.841  -0.000   0.000   0.063   0.000   0.000
  2.032  -1.555  -0.000   2.239   0.000   0.000   0.216  -0.000
  0.000   0.000   0.000   0.000   0.841   0.000   0.000   0.063
  0.000   0.000   0.063   0.000   0.000   0.005   0.000   0.000
  0.381  -0.233   0.000   0.216   0.000   0.000   0.030   0.000
  0.000  -0.000   0.000  -0.000   0.063   0.000   0.000   0.005


------------------------ aborting loop because EDIFF is reached ----------------------------------------


    FORLOC:  cpu time      0.0041: real time      0.0041
    FORNL :  cpu time      0.4186: real time      0.4188
    STRESS:  cpu time      1.3344: real time      1.3350
    FORCOR:  cpu time      0.0272: real time      0.0272
    OFIELD:  cpu time      0.0001: real time      0.0001
    FORVDW:  cpu time      7.9354: real time      8.2500

  FORCE on cell =-STRESS in cart. coord.  units (eV):
  Direction    XX          YY          ZZ          XY          YZ          ZX
  --------------------------------------------------------------------------------------
  Alpha Z   907.96410   907.96410   907.96410
  Ewald  157441.22840157441.22840************     0.00000     0.00000    -0.00000
  Hartree167866.48599167866.48599************    -0.00000    -0.00000    -0.00000
  E(xc)   -2509.87424 -2509.87424 -2516.37754    -0.00000    -0.00000     0.00000
  Local  ************************334890.34545    -0.00000    -0.00000    -0.00000
  n-local -2812.82711 -2813.60681 -2844.57830    -0.00000    -0.00000     0.00000
  augment  1052.76048  1052.76048  1042.63237     0.00000     0.00000    -0.00000
  Kinetic  7500.59195  7503.09404  7523.22939     0.00002     0.00001    -0.00001
  Fock        0.00000     0.00000     0.00000     0.00000     0.00000     0.00000
  vdW       -21.66258   -21.66260   -16.50819    -0.00000    -0.00000    -0.00000
  -------------------------------------------------------------------------------------
  Total     -26.07833   -26.07833    -1.91169     0.00000     0.00000     0.00000
  in kB     -27.49148   -27.49148    -2.01528     0.00000     0.00000     0.00000
  external pressure =      -19.00 kB  Pullay stress =        0.00 kB


 VOLUME and BASIS-vectors are now :
 -----------------------------------------------------------------------------
  energy-cutoff  :      600.00
  volume of cell :     1519.82
      direct lattice vectors                 reciprocal lattice vectors
     8.440984654  0.000000000  0.000000000     0.118469591  0.000000000  0.000000000
     0.000000000  8.440984654  0.000000000     0.000000000  0.118469591  0.000000000
     0.000000000  0.000000000 21.330738491     0.000000000  0.000000000  0.046880702

  length of vectors
     8.440984654  8.440984654 21.330738491     0.118469591  0.118469591  0.046880702


 FORCES acting on ions:
    Electron-Ion                     Ewald-Force                    Non-Local-Force
 -----------------------------------------------------------------------------------------------
   0.858E-13 0.943E-13 -.818E+03   0.577E-14 -.555E-14 0.791E+03   0.000E+00 -.662E-23 0.267E+02
   0.416E-12 -.189E-12 -.142E+04   -.644E-14 -.444E-15 0.148E+04   0.000E+00 0.116E-22 -.595E+02
   -.178E-13 -.120E+00 0.208E+04   0.560E-13 0.120E+00 -.207E+04   -.132E-22 -.218E-03 -.716E+01
   0.120E+00 -.108E-11 0.208E+04   -.120E+00 0.671E-13 -.207E+04   0.218E-03 -.132E-22 -.716E+01
   -.400E-13 -.475E-12 0.712E+03   -.150E-10 0.150E-10 -.713E+03   0.265E-22 0.000E+00 0.502E+00
   0.414E+00 -.414E+00 0.713E+03   -.410E+00 0.410E+00 -.714E+03   -.256E-02 0.256E-02 0.528E+00
   -.505E-13 -.267E+01 -.643E+03   0.157E-11 0.266E+01 0.643E+03   -.199E-22 0.149E-01 -.156E+00
   0.267E+01 -.138E-12 -.643E+03   -.266E+01 -.151E-11 0.643E+03   -.149E-01 0.000E+00 -.156E+00
   -.372E-13 -.135E-12 -.200E+04   0.444E-12 -.416E-12 0.200E+04   0.000E+00 0.265E-22 0.608E+01
   0.169E+02 -.169E+02 -.198E+04   -.170E+02 0.170E+02 0.198E+04   0.902E-01 -.902E-01 0.617E+01
   -.231E-13 0.120E+00 0.208E+04   -.277E-12 -.120E+00 -.207E+04   0.331E-23 0.218E-03 -.716E+01
   0.113E+00 -.303E-12 0.208E+04   -.110E+00 0.131E-10 -.207E+04   -.169E-02 -.199E-22 -.716E+01
   -.396E-13 0.559E-12 0.713E+03   -.165E-10 0.000E+00 -.714E+03   -.662E-23 0.000E+00 0.465E+00
   0.414E+00 0.414E+00 0.713E+03   -.410E+00 -.410E+00 -.714E+03   -.256E-02 -.256E-02 0.528E+00
   -.593E-13 0.267E+01 -.643E+03   0.304E-11 -.266E+01 0.643E+03   -.132E-22 -.149E-01 -.156E+00
   0.372E+01 0.110E-11 -.637E+03   -.365E+01 0.178E-14 0.637E+03   -.776E-01 0.529E-22 -.265E+00
   -.369E-13 0.149E-11 -.199E+04   -.355E-13 -.995E-13 0.198E+04   0.000E+00 0.000E+00 0.609E+01
   0.169E+02 0.169E+02 -.198E+04   -.170E+02 -.170E+02 0.198E+04   0.902E-01 0.902E-01 0.617E+01
   0.934E-12 -.113E+00 0.208E+04   -.129E-10 0.110E+00 -.207E+04   0.000E+00 0.169E-02 -.716E+01
   -.120E+00 -.107E-11 0.208E+04   0.120E+00 0.471E-13 -.207E+04   -.218E-03 -.149E-22 -.716E+01
   0.844E-12 -.673E-14 0.713E+03   0.145E-11 0.150E-10 -.714E+03   -.331E-23 0.000E+00 0.465E+00
   -.414E+00 -.414E+00 0.713E+03   0.410E+00 0.410E+00 -.714E+03   0.256E-02 0.256E-02 0.528E+00
   0.818E-12 -.372E+01 -.637E+03   -.141E-11 0.365E+01 0.637E+03   0.596E-22 0.776E-01 -.265E+00
   -.267E+01 -.182E-12 -.643E+03   0.266E+01 -.156E-11 0.643E+03   0.149E-01 0.397E-22 -.156E+00
   0.895E-12 0.478E-12 -.199E+04   0.782E-13 -.355E-14 0.198E+04   0.265E-22 -.248E-23 0.609E+01
   -.169E+02 -.169E+02 -.198E+04   0.170E+02 0.170E+02 0.198E+04   -.902E-01 -.902E-01 0.617E+01
   0.942E-12 0.113E+00 0.208E+04   -.131E-10 -.110E+00 -.207E+04   0.132E-22 -.169E-02 -.716E+01
   -.113E+00 -.774E-12 0.208E+04   0.110E+00 0.131E-10 -.207E+04   0.169E-02 0.000E+00 -.716E+01
   0.893E-12 0.189E-11 0.713E+03   -.782E-13 0.355E-14 -.714E+03   -.529E-22 0.000E+00 0.601E+00
   -.414E+00 0.414E+00 0.713E+03   0.410E+00 -.410E+00 -.714E+03   0.256E-02 -.256E-02 0.528E+00
   0.822E-12 0.372E+01 -.637E+03   -.284E-13 -.365E+01 0.637E+03   0.000E+00 -.776E-01 -.265E+00
   -.372E+01 -.164E-11 -.637E+03   0.365E+01 0.000E+00 0.637E+03   0.776E-01 0.000E+00 -.265E+00
   0.870E-12 0.201E-11 -.192E+04   -.426E-13 -.391E-13 0.192E+04   0.132E-22 0.000E+00 0.447E+01
   -.169E+02 0.169E+02 -.198E+04   0.170E+02 -.170E+02 0.198E+04   -.902E-01 0.902E-01 0.617E+01
   -.742E-13 -.371E+00 0.534E+03   0.409E-13 0.366E+00 -.534E+03   0.000E+00 0.682E-02 -.910E-01
   0.371E+00 0.892E-13 0.534E+03   -.366E+00 0.391E-13 -.534E+03   -.682E-02 -.529E-22 -.910E-01
   -.512E-13 -.384E-12 0.156E+04   0.853E-11 -.844E-11 -.156E+04   0.000E+00 0.265E-22 0.341E+01
   0.866E-01 -.866E-01 0.156E+04   -.858E-01 0.858E-01 -.156E+04   -.104E-02 0.104E-02 0.341E+01
   -.647E-13 -.701E+01 -.152E+04   -.871E-12 0.695E+01 0.153E+04   -.331E-22 0.539E-01 -.495E+01
   0.701E+01 -.404E-13 -.152E+04   -.695E+01 0.881E-12 0.153E+04   -.539E-01 -.265E-22 -.495E+01
   -.708E-13 0.488E-12 -.479E+03   -.853E-13 0.639E-13 0.478E+03   0.000E+00 0.662E-23 0.258E+00
   0.236E+01 -.236E+01 -.474E+03   -.235E+01 0.235E+01 0.473E+03   -.675E-02 0.675E-02 0.326E+00
   -.812E-13 0.371E+00 0.534E+03   0.142E-13 -.366E+00 -.534E+03   0.265E-22 -.682E-02 -.910E-01
   0.327E+00 0.606E-12 0.535E+03   -.353E+00 -.764E-11 -.535E+03   0.355E-01 0.265E-22 -.111E+00
   -.576E-13 0.135E-12 0.156E+04   0.845E-11 -.796E-12 -.156E+04   0.000E+00 0.000E+00 0.341E+01
   0.866E-01 0.866E-01 0.156E+04   -.858E-01 -.858E-01 -.156E+04   -.104E-02 -.104E-02 0.341E+01
   -.818E-13 0.701E+01 -.152E+04   -.774E-12 -.695E+01 0.153E+04   -.132E-22 -.539E-01 -.495E+01
   0.216E+02 0.485E-12 -.149E+04   -.213E+02 0.810E-11 0.150E+04   -.285E+00 0.265E-22 -.495E+01
   -.642E-13 0.547E-12 -.474E+03   -.741E-11 0.711E-14 0.474E+03   0.132E-22 0.000E+00 0.282E+00
   0.236E+01 0.236E+01 -.474E+03   -.235E+01 -.235E+01 0.473E+03   -.675E-02 -.675E-02 0.326E+00
   0.325E-12 -.327E+00 0.535E+03   0.764E-11 0.353E+00 -.535E+03   0.132E-22 -.355E-01 -.111E+00
   -.371E+00 0.690E-13 0.534E+03   0.366E+00 0.142E-13 -.534E+03   0.682E-02 0.000E+00 -.910E-01
   0.385E-12 -.956E-12 0.156E+04   0.845E-12 -.846E-11 -.156E+04   -.331E-23 -.529E-22 0.341E+01
   -.866E-01 -.866E-01 0.156E+04   0.858E-01 0.858E-01 -.156E+04   0.104E-02 0.104E-02 0.341E+01
   0.326E-12 -.216E+02 -.149E+04   -.816E-11 0.213E+02 0.150E+04   0.149E-22 0.285E+00 -.495E+01
   -.701E+01 0.673E-14 -.152E+04   0.695E+01 0.924E-12 0.153E+04   0.539E-01 0.265E-22 -.495E+01
   0.305E-12 -.337E-12 -.474E+03   -.711E-14 0.738E-11 0.474E+03   0.116E-22 -.265E-22 0.282E+00
   -.236E+01 -.236E+01 -.474E+03   0.235E+01 0.235E+01 0.473E+03   0.675E-02 0.675E-02 0.326E+00
   0.329E-12 0.327E+00 0.535E+03   0.763E-11 -.353E+00 -.535E+03   -.199E-22 0.355E-01 -.111E+00
   -.327E+00 0.150E-11 0.535E+03   0.353E+00 -.769E-11 -.535E+03   -.355E-01 0.000E+00 -.111E+00
   0.360E-12 0.593E-12 0.156E+04   0.824E-12 -.838E-12 -.156E+04   -.529E-22 0.000E+00 0.340E+01
   -.866E-01 0.866E-01 0.156E+04   0.858E-01 -.858E-01 -.156E+04   0.104E-02 -.104E-02 0.341E+01
   0.343E-12 0.216E+02 -.149E+04   -.820E-11 -.213E+02 0.150E+04   -.199E-22 -.285E+00 -.495E+01
   -.216E+02 -.209E-11 -.149E+04   0.213E+02 0.819E-11 0.150E+04   0.285E+00 0.000E+00 -.495E+01
   0.289E-12 0.190E-11 -.474E+03   -.497E-13 0.426E-13 0.475E+03   -.331E-23 0.662E-23 -.190E+00
   -.236E+01 0.236E+01 -.474E+03   0.235E+01 -.235E+01 0.473E+03   0.675E-02 -.675E-02 0.326E+00
 -----------------------------------------------------------------------------------------------
   0.262E-10 0.173E-10 0.514E+02   0.197E-12 -.826E-13 0.909E-12   0.416E-16 -.147E-16 -.514E+02


 POSITION                                       TOTAL-FORCE (eV/Angst)
 -----------------------------------------------------------------------------------
      4.22049      4.22049     16.40814         0.000000      0.000000     -0.036746
      4.22049      4.22049     17.55496         0.000000      0.000000     -0.023453
      0.00000      6.33074      7.50000         0.000000      0.000051      0.339123
      2.11025      0.00000      7.50000        -0.000051      0.000000      0.339123
      0.00000      0.00000      9.61025         0.000000      0.000000      0.070089
      2.11025      6.33074      9.61025         0.001522     -0.001522      0.072250
      0.00000      6.33023     11.73368         0.000000      0.000205     -0.002885
      2.11076      0.00000     11.73368        -0.000205      0.000000     -0.002885
      0.00000      0.00000     13.83822         0.000000      0.000000     -0.000534
      2.10905      6.33193     13.83447        -0.000041      0.000041      0.002903
      0.00000      2.11025      7.50000         0.000000     -0.000051      0.339123
      2.11025      4.22049      7.50000         0.000644      0.000000      0.339169
      0.00000      4.22049      9.61025         0.000000      0.000000      0.078801
      2.11025      2.11025      9.61025         0.001522      0.001522      0.072250
      0.00000      2.11076     11.73368         0.000000     -0.000205     -0.002885
      2.11344      4.22049     11.73659        -0.004053      0.000000      0.003592
      0.00000      4.22049     13.83544         0.000000      0.000000     -0.000196
      2.10905      2.10905     13.83447        -0.000041     -0.000041      0.002903
      4.22049      6.33074      7.50000         0.000000     -0.000644      0.339169
      6.33074      0.00000      7.50000         0.000051      0.000000      0.339123
      4.22049      0.00000      9.61025         0.000000      0.000000      0.078801
      6.33074      6.33074      9.61025        -0.001522     -0.001522      0.072250
      4.22049      6.32754     11.73659         0.000000      0.004053      0.003592
      6.33023      0.00000     11.73368         0.000205      0.000000     -0.002885
      4.22049      0.00000     13.83544         0.000000     -0.000000     -0.000196
      6.33193      6.33193     13.83447         0.000041      0.000041      0.002903
      4.22049      2.11025      7.50000         0.000000      0.000644      0.339169
      6.33074      4.22049      7.50000        -0.000644      0.000000      0.339169
      4.22049      4.22049      9.61025         0.000000      0.000000      0.083954
      6.33074      2.11025      9.61025        -0.001522      0.001522      0.072250
      4.22049      2.11344     11.73659         0.000000     -0.004053      0.003592
      6.32754      4.22049     11.73659         0.004053      0.000000      0.003592
      4.22049      4.22049     13.87814         0.000000      0.000000      0.045491
      6.33193      2.10905     13.83447         0.000041     -0.000041      0.002903
      0.00000      6.33074      9.61025         0.000000      0.002057      0.077311
      2.11025      0.00000      9.61025        -0.002057      0.000000      0.077311
      0.00000      0.00000      7.50000         0.000000      0.000000     -0.501269
      2.11025      6.33074      7.50000        -0.000304      0.000304     -0.501033
      0.00000      6.33258     13.88587         0.000000     -0.002691      0.000306
      2.10840      0.00000     13.88587         0.002691      0.000000      0.000306
      0.00000      0.00000     11.72785         0.000000      0.000000      0.006299
      2.10979      6.33120     11.72890         0.002929     -0.002929     -0.000674
      0.00000      2.11025      9.61025         0.000000     -0.002057      0.077311
      2.11025      4.22049      9.61025         0.009102      0.000000      0.086402
      0.00000      4.22049      7.50000         0.000000      0.000000     -0.501111
      2.11025      2.11025      7.50000        -0.000304     -0.000304     -0.501033
      0.00000      2.10840     13.88587         0.000000      0.002691      0.000306
      2.10031      4.22049     13.88381         0.016788      0.000000      0.007280
      0.00000      4.22049     11.72684         0.000000      0.000000      0.004119
      2.10979      2.10979     11.72890         0.002929      0.002929     -0.000674
      4.22049      6.33074      9.61025         0.000000     -0.009102      0.086402
      6.33074      0.00000      9.61025         0.002057      0.000000      0.077311
      4.22049      0.00000      7.50000         0.000000      0.000000     -0.501111
      6.33074      6.33074      7.50000         0.000304      0.000304     -0.501033
      4.22049      6.34068     13.88381         0.000000     -0.016788      0.007280
      6.33258      0.00000     13.88587        -0.002691      0.000000      0.000306
      4.22049      0.00000     11.72684         0.000000      0.000000      0.004119
      6.33120      6.33120     11.72890        -0.002929     -0.002929     -0.000674
      4.22049      2.11025      9.61025         0.000000      0.009102      0.086402
      6.33074      4.22049      9.61025        -0.009102      0.000000      0.086402
      4.22049      4.22049      7.50000         0.000000      0.000000     -0.501832
      6.33074      2.11025      7.50000         0.000304     -0.000304     -0.501033
      4.22049      2.10031     13.88381         0.000000      0.016788      0.007280
      6.34068      4.22049     13.88381        -0.016788      0.000000      0.007280
      4.22049      4.22049     11.73684         0.000000      0.000000     -0.000203
      6.33120      2.10979     11.72890        -0.002929      0.002929     -0.000674
 -----------------------------------------------------------------------------------
    total drift:                                0.000000      0.000000     -0.026154


--------------------------------------------------------------------------------------------------------



  FREE ENERGIE OF THE ION-ELECTRON SYSTEM (eV)
  ---------------------------------------------------
  free  energy   TOTEN  =      -386.04921123 eV

  energy  without entropy=     -386.04921123  energy(sigma->0) =     -386.04921123



--------------------------------------------------------------------------------------------------------


    POTLOK:  cpu time      0.3679: real time      0.3682


--------------------------------------------------------------------------------------------------------


     LOOP+:  cpu time     54.8534: real time     55.5175
    4ORBIT:  cpu time      0.0000: real time      0.0000

 total amount of memory used by VASP MPI-rank0    78528. kBytes
=======================================================================

   base      :      30000. kBytes
   nonl-proj :      29343. kBytes
   fftplans  :       3857. kBytes
   grid      :       5885. kBytes
   one-center:        137. kBytes
   wavefun   :       9306. kBytes

  
  
 General timing and accounting informations for this job:
 ========================================================
  
                  Total CPU time used (sec):       73.022
                            User time (sec):       70.830
                          System time (sec):        2.192
                         Elapsed time (sec):       78.317
  
                   Maximum memory used (kb):      176596.
                   Average memory used (kb):          N/A
  
                          Minor page faults:        32071
                          Major page faults:           50
                 Voluntary context switches:         7053
