 vasp.6.3.0 20Jan22 (build Apr  1 2022 16:44:48) complex                         
 executed on        HPECrayEX_GCC date 2023.05.17  13:38:29
 running  512 mpi-ranks, with    1 threads/rank
 distrk:  each k-point on  256 cores,    2 groups
 distr:  one band on NCORE=   4 cores,   64 groups


--------------------------------------------------------------------------------------------------------


 INCAR:
   SYSTEM = MgO-rocksalt
   ISMEAR = 0
   SIGMA = 0.05
   EDIFF = 1E-6
   ALGO = ALL
   ISTART = 0
   IBRION = -1
   NSW = 0
   ISYM = 2
   ISIF = 2
   EDIFFG = -0.01
   DIPOL = 0.5 0.5 0.5
   IDIPOL = 3
   LDIPOL = .TRUE.
   GGA = PE
   IVDW = 1
   VDW_C6 = 1.75 0.70 0.63 0.70
   VDW_R0 = 1.452 1.342 1.243 1.342
   ENCUT = 600
   PREC = Normal
   LASPH = .TRUE.
   LREAL = .FALSE.
   ISPIN = 1
   NELM = 200
   NELMIN = 8
   NCORE = 4
   KPAR = 2
   LWAVE = .FALSE.
   LCHARG = .FALSE.

 POTCAR:    PAW_PBE C 08Apr2002                   
 POTCAR:    PAW_PBE O 08Apr2002                   
 POTCAR:    PAW_PBE Mg_pv 13Apr2007               
 POTCAR:    PAW_PBE O 08Apr2002                   
 POTCAR:    PAW_PBE C 08Apr2002                   
   SHA256 =  253f7b50bb8d59471dbedb8285d89021f4a42ed1a2c5d38a03a736e69125dd95 C/POTCAR              
   COPYR  = (c) Copyright 08Apr2002 Georg Kresse                                                    
   COPYR  = This file is part of the software VASP. Any use, copying, and all other rights are regul
   COPYR  = If you do not have a valid VASP license, you may not use, copy or distribute this file. 
   VRHFIN =C: s2p2                                                                                  
   LEXCH  = PE                                                                                      
   EATOM  =   147.1560 eV,   10.8157 Ry                                                             
                                                                                                    
   TITEL  = PAW_PBE C 08Apr2002                                                                     
   LULTRA =        F    use ultrasoft PP ?                                                          
   IUNSCR =        1    unscreen: 0-lin 1-nonlin 2-no                                               
   RPACOR =    1.200    partial core radius                                                         
   POMASS =   12.011; ZVAL   =    4.000    mass and valenz                                          
   RCORE  =    1.500    outmost cutoff radius                                                       
   RWIGS  =    1.630; RWIGS  =    0.863    wigner-seitz radius (au A)                               
   ENMAX  =  400.000; ENMIN  =  300.000 eV                                                          
   ICORE  =        2    local potential                                                             
   LCOR   =        T    correct aug charges                                                         
   LPAW   =        T    paw PP                                                                      
   EAUG   =  644.873                                                                                
   DEXC   =    0.000                                                                                
   RMAX   =    1.529    core radius for proj-oper                                                   
   RAUG   =    1.300    factor for augmentation sphere                                              
   RDEP   =    1.501    radius for radial grids                                                     
   RDEPT  =    1.300    core radius for aug-charge                                                  
                                                                                                    
   Atomic configuration                                                                             
    4 entries                                                                                       
     n  l   j            E        occ.                                                              
     1  0  0.50      -273.3789   2.0000                                                             
     2  0  0.50       -13.7508   2.0000                                                             
     2  1  0.50        -5.2854   2.0000                                                             
     3  2  1.50        -5.4423   0.0000                                                             
   Description                                                                                      
     l       E           TYP  RCUT    TYP  RCUT                                                     
     0    -13.7508458     23  1.200                                                                 
     0     -8.2022199     23  1.200                                                                 
     1     -5.2854383     23  1.500                                                                 
     1     34.0145650     23  1.500                                                                 
     2     -5.4423304      7  1.500                                                                 
  local pseudopotential read in
  partial core-charges read in
  partial kinetic energy density read in
  atomic valenz-charges read in
  non local Contribution for L=           0  read in
    real space projection operators read in
  non local Contribution for L=           0  read in
    real space projection operators read in
  non local Contribution for L=           1  read in
    real space projection operators read in
  non local Contribution for L=           1  read in
    real space projection operators read in
    PAW grid and wavefunctions read in

   number of l-projection  operators is LMAX  =           4
   number of lm-projection operators is LMMAX =           8

 POTCAR:    PAW_PBE O 08Apr2002                   
   SHA256 =  818f92134a0a090dccd8ba1447fa70422a3b330e708bb4f08108d8ae51209ddf O/POTCAR              
   COPYR  = (c) Copyright 08Apr2002 Georg Kresse                                                    
   COPYR  = This file is part of the software VASP. Any use, copying, and all other rights are regul
   COPYR  = If you do not have a valid VASP license, you may not use, copy or distribute this file. 
   VRHFIN =O: s2p4                                                                                  
   LEXCH  = PE                                                                                      
   EATOM  =   432.3788 eV,   31.7789 Ry                                                             
                                                                                                    
   TITEL  = PAW_PBE O 08Apr2002                                                                     
   LULTRA =        F    use ultrasoft PP ?                                                          
   IUNSCR =        1    unscreen: 0-lin 1-nonlin 2-no                                               
   RPACOR =    1.200    partial core radius                                                         
   POMASS =   16.000; ZVAL   =    6.000    mass and valenz                                          
   RCORE  =    1.520    outmost cutoff radius                                                       
   RWIGS  =    1.550; RWIGS  =    0.820    wigner-seitz radius (au A)                               
   ENMAX  =  400.000; ENMIN  =  300.000 eV                                                          
   ICORE  =        2    local potential                                                             
   LCOR   =        T    correct aug charges                                                         
   LPAW   =        T    paw PP                                                                      
   EAUG   =  605.392                                                                                
   DEXC   =    0.000                                                                                
   RMAX   =    1.553    core radius for proj-oper                                                   
   RAUG   =    1.300    factor for augmentation sphere                                              
   RDEP   =    1.550    radius for radial grids                                                     
   RDEPT  =    1.329    core radius for aug-charge                                                  
                                                                                                    
   Atomic configuration                                                                             
    4 entries                                                                                       
     n  l   j            E        occ.                                                              
     1  0  0.50      -514.6923   2.0000                                                             
     2  0  0.50       -23.9615   2.0000                                                             
     2  1  0.50        -9.0305   4.0000                                                             
     3  2  1.50        -9.5241   0.0000                                                             
   Description                                                                                      
     l       E           TYP  RCUT    TYP  RCUT                                                     
     0    -23.9615318     23  1.200                                                                 
     0     -9.5240782     23  1.200                                                                 
     1     -9.0304911     23  1.520                                                                 
     1      8.1634956     23  1.520                                                                 
     2     -9.5240782      7  1.500                                                                 
  local pseudopotential read in
  partial core-charges read in
  partial kinetic energy density read in
  kinetic energy density of atom read in
  atomic valenz-charges read in
  non local Contribution for L=           0  read in
    real space projection operators read in
  non local Contribution for L=           0  read in
    real space projection operators read in
  non local Contribution for L=           1  read in
    real space projection operators read in
  non local Contribution for L=           1  read in
    real space projection operators read in
    PAW grid and wavefunctions read in

   number of l-projection  operators is LMAX  =           4
   number of lm-projection operators is LMMAX =           8

 POTCAR:    PAW_PBE Mg_pv 13Apr2007               
   SHA256 =  f474ac0dd33840b9ae76c01d57fea79fdf77cdfbb07d5ade72c65f83c709b62b Mg_pv/POTCAR          
   COPYR  = (c) Copyright 13Apr2007 Georg Kresse                                                    
   COPYR  = This file is part of the software VASP. Any use, copying, and all other rights are regul
   COPYR  = If you do not have a valid VASP license, you may not use, copy or distribute this file. 
   VRHFIN =Mg: p6s2                                                                                 
   LEXCH  = PE                                                                                      
   EATOM  =  1056.7344 eV,   77.6678 Ry                                                             
                                                                                                    
   TITEL  = PAW_PBE Mg_pv 13Apr2007                                                                 
   LULTRA =        F    use ultrasoft PP ?                                                          
   IUNSCR =        1    unscreen: 0-lin 1-nonlin 2-no                                               
   RPACOR =    1.500    partial core radius                                                         
   POMASS =   24.305; ZVAL   =    8.000    mass and valenz                                          
   RCORE  =    2.000    outmost cutoff radius                                                       
   RWIGS  =    2.000; RWIGS  =    1.058    wigner-seitz radius (au A)                               
   ENMAX  =  403.929; ENMIN  =  302.947 eV                                                          
   RCLOC  =    1.506    cutoff for local pot                                                        
   LCOR   =        T    correct aug charges                                                         
   LPAW   =        T    paw PP                                                                      
   EAUG   =  758.780                                                                                
   DEXC   =    0.000                                                                                
   RMAX   =    2.045    core radius for proj-oper                                                   
   RAUG   =    1.300    factor for augmentation sphere                                              
   RDEP   =    2.025    radius for radial grids                                                     
   RDEPT  =    1.557    core radius for aug-charge                                                  
                                                                                                    
   Atomic configuration                                                                             
    5 entries                                                                                       
     n  l   j            E        occ.                                                              
     1  0  0.50     -1259.6230   2.0000                                                             
     2  0  0.50       -79.8442   2.0000                                                             
     2  1  1.50       -46.6121   6.0000                                                             
     3  0  0.50        -4.7055   2.0000                                                             
     3  2  1.50        -1.3606   0.0000                                                             
   Description                                                                                      
     l       E           TYP  RCUT    TYP  RCUT                                                     
     1    -46.6121073     23  1.600                                                                 
     1      2.7211652     23  1.600                                                                 
     0     -4.7054661     23  2.000                                                                 
     0     61.2262170     23  2.000                                                                 
     2     -1.3605826     23  2.000                                                                 
  local pseudopotential read in
  partial core-charges read in
  partial kinetic energy density read in
  atomic valenz-charges read in
  non local Contribution for L=           1  read in
    real space projection operators read in
  non local Contribution for L=           1  read in
    real space projection operators read in
  non local Contribution for L=           0  read in
    real space projection operators read in
  non local Contribution for L=           0  read in
    real space projection operators read in
  non local Contribution for L=           2  read in
    real space projection operators read in
    PAW grid and wavefunctions read in

   number of l-projection  operators is LMAX  =           5
   number of lm-projection operators is LMMAX =          13

 POTCAR:    PAW_PBE O 08Apr2002                   
   SHA256 =  818f92134a0a090dccd8ba1447fa70422a3b330e708bb4f08108d8ae51209ddf O/POTCAR              
   COPYR  = (c) Copyright 08Apr2002 Georg Kresse                                                    
   COPYR  = This file is part of the software VASP. Any use, copying, and all other rights are regul
   COPYR  = If you do not have a valid VASP license, you may not use, copy or distribute this file. 
   VRHFIN =O: s2p4                                                                                  
   LEXCH  = PE                                                                                      
   EATOM  =   432.3788 eV,   31.7789 Ry                                                             
                                                                                                    
   TITEL  = PAW_PBE O 08Apr2002                                                                     
   LULTRA =        F    use ultrasoft PP ?                                                          
   IUNSCR =        1    unscreen: 0-lin 1-nonlin 2-no                                               
   RPACOR =    1.200    partial core radius                                                         
   POMASS =   16.000; ZVAL   =    6.000    mass and valenz                                          
   RCORE  =    1.520    outmost cutoff radius                                                       
   RWIGS  =    1.550; RWIGS  =    0.820    wigner-seitz radius (au A)                               
   ENMAX  =  400.000; ENMIN  =  300.000 eV                                                          
   ICORE  =        2    local potential                                                             
   LCOR   =        T    correct aug charges                                                         
   LPAW   =        T    paw PP                                                                      
   EAUG   =  605.392                                                                                
   DEXC   =    0.000                                                                                
   RMAX   =    1.553    core radius for proj-oper                                                   
   RAUG   =    1.300    factor for augmentation sphere                                              
   RDEP   =    1.550    radius for radial grids                                                     
   RDEPT  =    1.329    core radius for aug-charge                                                  
                                                                                                    
   Atomic configuration                                                                             
    4 entries                                                                                       
     n  l   j            E        occ.                                                              
     1  0  0.50      -514.6923   2.0000                                                             
     2  0  0.50       -23.9615   2.0000                                                             
     2  1  0.50        -9.0305   4.0000                                                             
     3  2  1.50        -9.5241   0.0000                                                             
   Description                                                                                      
     l       E           TYP  RCUT    TYP  RCUT                                                     
     0    -23.9615318     23  1.200                                                                 
     0     -9.5240782     23  1.200                                                                 
     1     -9.0304911     23  1.520                                                                 
     1      8.1634956     23  1.520                                                                 
     2     -9.5240782      7  1.500                                                                 
  local pseudopotential read in
  partial core-charges read in
  partial kinetic energy density read in
  kinetic energy density of atom read in
  atomic valenz-charges read in
  non local Contribution for L=           0  read in
    real space projection operators read in
  non local Contribution for L=           0  read in
    real space projection operators read in
  non local Contribution for L=           1  read in
    real space projection operators read in
  non local Contribution for L=           1  read in
    real space projection operators read in
    PAW grid and wavefunctions read in

   number of l-projection  operators is LMAX  =           4
   number of lm-projection operators is LMMAX =           8

 -----------------------------------------------------------------------------
|                                                                             |
|               ----> ADVICE to this user running VASP <----                  |
|                                                                             |
|     You have a (more or less) 'large supercell' and for larger cells it     |
|     might be more efficient to use real-space projection operators.         |
|     Therefore, try LREAL= Auto in the INCAR file.                           |
|     Mind: For very accurate calculation, you might also keep the            |
|     reciprocal projection scheme (i.e. LREAL=.FALSE.).                      |
|                                                                             |
 -----------------------------------------------------------------------------

  PAW_PBE C 08Apr2002                   :
 energy of atom  1       EATOM= -147.1560
 kinetic energy error for atom=    0.0057 (will be added to EATOM!!)
  PAW_PBE O 08Apr2002                   :
 energy of atom  2       EATOM= -432.3788
 kinetic energy error for atom=    0.0168 (will be added to EATOM!!)
  PAW_PBE Mg_pv 13Apr2007               :
 energy of atom  3       EATOM=-1056.7344
 kinetic energy error for atom=    0.0221 (will be added to EATOM!!)
  PAW_PBE O 08Apr2002                   :
 energy of atom  4       EATOM= -432.3788
 kinetic energy error for atom=    0.0168 (will be added to EATOM!!)


 POSCAR:  C  O Mg  O
  positions in direct lattice
  No initial velocities read in
 exchange correlation table for  LEXCH =        8
   RHO(1)=    0.500       N(1)  =     2000
   RHO(2)=  100.500       N(2)  =     4000



--------------------------------------------------------------------------------------------------------


 ion  position               nearest neighbor table
   1  0.500  0.500  0.767-   2 1.15
   2  0.500  0.500  0.821-   1 1.15
   3  0.000  0.750  0.352-  35 2.11  37 2.11  38 2.11  45 2.11  54 2.11
   4  0.250  0.000  0.352-  36 2.11  37 2.11  38 2.11  46 2.11  53 2.11
   5  0.000  0.000  0.451-  37 2.11  36 2.11  35 2.11  43 2.11  52 2.11  41 2.12
   6  0.250  0.750  0.451-  38 2.11  36 2.11  35 2.11  44 2.11  51 2.11  42 2.12
   7  0.000  0.750  0.550-  49 2.11  42 2.11  58 2.11  41 2.11  35 2.12  39 2.15
   8  0.250  0.000  0.550-  57 2.11  50 2.11  42 2.11  41 2.11  36 2.12  40 2.15
   9  0.000  0.000  0.649-  39 2.11  40 2.11  47 2.11  56 2.11  41 2.11
  10  0.250  0.750  0.649-  42 2.11  40 2.11  39 2.11  48 2.11  55 2.11
  11  0.000  0.250  0.352-  43 2.11  37 2.11  45 2.11  46 2.11  62 2.11
  12  0.250  0.500  0.352-  44 2.11  38 2.11  45 2.11  46 2.11  61 2.11
  13  0.000  0.500  0.451-  45 2.11  43 2.11  44 2.11  35 2.11  60 2.11  49 2.12
  14  0.250  0.250  0.451-  46 2.11  43 2.11  44 2.11  36 2.11  59 2.11  50 2.12
  15  0.000  0.250  0.550-  49 2.11  50 2.11  66 2.11  41 2.11  43 2.12  47 2.15
  16  0.250  0.500  0.550-  65 2.11  50 2.11  42 2.11  49 2.11  44 2.13  48 2.15
  17  0.000  0.500  0.649-  48 2.10  64 2.10  49 2.11  47 2.11  39 2.11
  18  0.250  0.250  0.649-  50 2.11  47 2.11  40 2.11  48 2.11  63 2.11
  19  0.500  0.750  0.352-  51 2.11  38 2.11  53 2.11  54 2.11  61 2.11
  20  0.750  0.000  0.352-  52 2.11  37 2.11  53 2.11  54 2.11  62 2.11
  21  0.500  0.000  0.451-  53 2.11  51 2.11  52 2.11  36 2.11  59 2.11  57 2.12
  22  0.750  0.750  0.451-  54 2.11  51 2.11  52 2.11  35 2.11  60 2.11  58 2.12
  23  0.500  0.750  0.550-  65 2.11  58 2.11  42 2.11  57 2.11  51 2.13  55 2.15
  24  0.750  0.000  0.550-  57 2.11  58 2.11  66 2.11  41 2.11  52 2.12  56 2.15
  25  0.500  0.000  0.649-  55 2.10  63 2.10  57 2.11  40 2.11  56 2.11
  26  0.750  0.750  0.649-  58 2.11  56 2.11  39 2.11  55 2.11  64 2.11
  27  0.500  0.250  0.352-  59 2.11  53 2.11  46 2.11  61 2.11  62 2.11
  28  0.750  0.500  0.352-  60 2.11  54 2.11  45 2.11  61 2.11  62 2.11
  29  0.500  0.500  0.451-  61 2.11  51 2.11  59 2.11  60 2.11  44 2.11  65 2.13
  30  0.750  0.250  0.451-  62 2.11  52 2.11  59 2.11  60 2.11  43 2.11  66 2.12
  31  0.500  0.250  0.550-  65 2.11  50 2.11  66 2.11  57 2.11  59 2.13  63 2.15
  32  0.750  0.500  0.550-  65 2.11  58 2.11  66 2.11  49 2.11  60 2.13  64 2.15
  33  0.500  0.500  0.651-  48 2.12  55 2.12  63 2.12  64 2.12  65 2.14
  34  0.750  0.250  0.649-  66 2.11  56 2.11  47 2.11  64 2.11  63 2.11
  35  0.000  0.750  0.451-   3 2.11   5 2.11   6 2.11  13 2.11  22 2.11   7 2.12
  36  0.250  0.000  0.451-   4 2.11   5 2.11   6 2.11  14 2.11  21 2.11   8 2.12
  37  0.000  0.000  0.352-   5 2.11   4 2.11   3 2.11  11 2.11  20 2.11
  38  0.250  0.750  0.352-   6 2.11   4 2.11   3 2.11  12 2.11  19 2.11
  39  0.000  0.750  0.651-   9 2.11  10 2.11  26 2.11  17 2.11   7 2.15
  40  0.250  0.000  0.651-   9 2.11  10 2.11  18 2.11  25 2.11   8 2.15
  41  0.000  0.000  0.550-   9 2.11   8 2.11   7 2.11  15 2.11  24 2.11   5 2.12
  42  0.250  0.750  0.550-  10 2.11   8 2.11   7 2.11  16 2.11  23 2.11   6 2.12
  43  0.000  0.250  0.451-  11 2.11   5 2.11  13 2.11  14 2.11  30 2.11  15 2.12
  44  0.250  0.500  0.451-  12 2.11   6 2.11  13 2.11  14 2.11  29 2.11  16 2.13
  45  0.000  0.500  0.352-  13 2.11  11 2.11  12 2.11   3 2.11  28 2.11
  46  0.250  0.250  0.352-  14 2.11  11 2.11  12 2.11   4 2.11  27 2.11
  47  0.000  0.250  0.651-   9 2.11  18 2.11  34 2.11  17 2.11  15 2.15
  48  0.249  0.500  0.651-  17 2.10  10 2.11  18 2.11  33 2.12  16 2.15
  49  0.000  0.500  0.550-  17 2.11  15 2.11   7 2.11  16 2.11  32 2.11  13 2.12
  50  0.250  0.250  0.550-  18 2.11  15 2.11   8 2.11  16 2.11  31 2.11  14 2.12
  51  0.500  0.750  0.451-  19 2.11   6 2.11  21 2.11  22 2.11  29 2.11  23 2.13
  52  0.750  0.000  0.451-  20 2.11   5 2.11  21 2.11  22 2.11  30 2.11  24 2.12
  53  0.500  0.000  0.352-  21 2.11  19 2.11  20 2.11   4 2.11  27 2.11
  54  0.750  0.750  0.352-  22 2.11  19 2.11  20 2.11   3 2.11  28 2.11
  55  0.500  0.751  0.651-  25 2.10  10 2.11  26 2.11  33 2.12  23 2.15
  56  0.750  0.000  0.651-   9 2.11  26 2.11  34 2.11  25 2.11  24 2.15
  57  0.500  0.000  0.550-  25 2.11  24 2.11   8 2.11  23 2.11  31 2.11  21 2.12
  58  0.750  0.750  0.550-  26 2.11  24 2.11   7 2.11  32 2.11  23 2.11  22 2.12
  59  0.500  0.250  0.451-  27 2.11  21 2.11  14 2.11  29 2.11  30 2.11  31 2.13
  60  0.750  0.500  0.451-  28 2.11  22 2.11  13 2.11  29 2.11  30 2.11  32 2.13
  61  0.500  0.500  0.352-  29 2.11  19 2.11  27 2.11  28 2.11  12 2.11
  62  0.750  0.250  0.352-  30 2.11  20 2.11  27 2.11  28 2.11  11 2.11
  63  0.500  0.249  0.651-  25 2.10  18 2.11  34 2.11  33 2.12  31 2.15
  64  0.751  0.500  0.651-  17 2.10  26 2.11  34 2.11  33 2.12  32 2.15
  65  0.500  0.500  0.550-  16 2.11  23 2.11  31 2.11  32 2.11  29 2.13  33 2.14
  66  0.750  0.250  0.550-  34 2.11  24 2.11  15 2.11  32 2.11  31 2.11  30 2.12

  LATTYP: Found a simple tetragonal cell.
 ALAT       =     8.4409846542
 C/A-ratio  =     2.5270438657
  
  Lattice vectors:
  
 A1 = (   8.4409846542,   0.0000000000,   0.0000000000)
 A2 = (   0.0000000000,   8.4409846542,   0.0000000000)
 A3 = (   0.0000000000,   0.0000000000,  21.3307384906)


Analysis of symmetry for initial positions (statically):
=====================================================================
 Subroutine PRICEL returns:
 Original cell was already a primitive cell.
 

 Routine SETGRP: Setting up the symmetry group for a 
 simple tetragonal supercell.


 Subroutine GETGRP returns: Found  8 space group operations
 (whereof  8 operations were pure point group operations)
 out of a pool of 16 trial point group operations.


The static configuration has the point symmetry C_4v.


Analysis of symmetry for dynamics (positions and initial velocities):
=====================================================================
 Subroutine PRICEL returns:
 Original cell was already a primitive cell.
 

 Routine SETGRP: Setting up the symmetry group for a 
 simple tetragonal supercell.


 Subroutine GETGRP returns: Found  8 space group operations
 (whereof  8 operations were pure point group operations)
 out of a pool of 16 trial point group operations.


The dynamic configuration has the point symmetry C_4v.


 Subroutine INISYM returns: Found  8 space group operations
 (whereof  8 operations are pure point group operations),
 and found     1 'primitive' translations


----------------------------------------------------------------------------------------

                                     Primitive cell                                     

  volume of cell :    1519.8199

  direct lattice vectors                    reciprocal lattice vectors
     8.440984654  0.000000000  0.000000000     0.118469591  0.000000000  0.000000000
     0.000000000  8.440984654  0.000000000     0.000000000  0.118469591  0.000000000
     0.000000000  0.000000000 21.330738491     0.000000000  0.000000000  0.046880702

  length of vectors
     8.440984654  8.440984654 21.330738491     0.118469591  0.118469591  0.046880702

  position of ions in fractional coordinates (direct lattice)
     0.500000000  0.500000000  0.766881102
     0.500000000  0.500000000  0.820644820
     0.000000000  0.750000000  0.351605267
     0.250000000  0.000000000  0.351605267
     0.000000000  0.000000000  0.450535089
     0.250000000  0.750000000  0.450535089
     0.000000000  0.749939268  0.550083239
     0.250060732  0.000000000  0.550083239
     0.000000000  0.000000000  0.648745309
     0.249858327  0.750141673  0.648569547
     0.000000000  0.250000000  0.351605267
     0.250000000  0.500000000  0.351605267
     0.000000000  0.500000000  0.450535089
     0.250000000  0.250000000  0.450535089
     0.000000000  0.250060732  0.550083239
     0.250378379  0.500000000  0.550219524
     0.000000000  0.500000000  0.648615280
     0.249858327  0.249858327  0.648569547
     0.500000000  0.750000000  0.351605267
     0.750000000  0.000000000  0.351605267
     0.500000000  0.000000000  0.450535089
     0.750000000  0.750000000  0.450535089
     0.500000000  0.749621621  0.550219524
     0.749939268  0.000000000  0.550083239
     0.500000000  0.000000000  0.648615280
     0.750141673  0.750141673  0.648569547
     0.500000000  0.250000000  0.351605267
     0.750000000  0.500000000  0.351605267
     0.500000000  0.500000000  0.450535089
     0.750000000  0.250000000  0.450535089
     0.500000000  0.250378379  0.550219524
     0.749621621  0.500000000  0.550219524
     0.500000000  0.500000000  0.650616960
     0.750141673  0.249858327  0.648569547
     0.000000000  0.750000000  0.450535089
     0.250000000  0.000000000  0.450535089
     0.000000000  0.000000000  0.351605267
     0.250000000  0.750000000  0.351605267
     0.000000000  0.750218533  0.650979255
     0.249781467  0.000000000  0.650979255
     0.000000000  0.000000000  0.549809890
     0.249945770  0.750054230  0.549859113
     0.000000000  0.250000000  0.450535089
     0.250000000  0.500000000  0.450535089
     0.000000000  0.500000000  0.351605267
     0.250000000  0.250000000  0.351605267
     0.000000000  0.249781467  0.650979255
     0.248822710  0.500000000  0.650882872
     0.000000000  0.500000000  0.549762666
     0.249945770  0.249945770  0.549859113
     0.500000000  0.750000000  0.450535089
     0.750000000  0.000000000  0.450535089
     0.500000000  0.000000000  0.351605267
     0.750000000  0.750000000  0.351605267
     0.500000000  0.751177290  0.650882872
     0.750218533  0.000000000  0.650979255
     0.500000000  0.000000000  0.549762666
     0.750054230  0.750054230  0.549859113
     0.500000000  0.250000000  0.450535089
     0.750000000  0.500000000  0.450535089
     0.500000000  0.500000000  0.351605267
     0.750000000  0.250000000  0.351605267
     0.500000000  0.248822710  0.650882872
     0.751177290  0.500000000  0.650882872
     0.500000000  0.500000000  0.550231357
     0.750054230  0.249945770  0.549859113

  ion indices of the primitive-cell ions
   primitive index   ion index
                 1           1
                 2           2
                 3           3
                 4           4
                 5           5
                 6           6
                 7           7
                 8           8
                 9           9
                10          10
                11          11
                12          12
                13          13
                14          14
                15          15
                16          16
                17          17
                18          18
                19          19
                20          20
                21          21
                22          22
                23          23
                24          24
                25          25
                26          26
                27          27
                28          28
                29          29
                30          30
                31          31
                32          32
                33          33
                34          34
                35          35
                36          36
                37          37
                38          38
                39          39
                40          40
                41          41
                42          42
                43          43
                44          44
                45          45
                46          46
                47          47
                48          48
                49          49
                50          50
                51          51
                52          52
                53          53
                54          54
                55          55
                56          56
                57          57
                58          58
                59          59
                60          60
                61          61
                62          62
                63          63
                64          64
                65          65
                66          66

----------------------------------------------------------------------------------------



 KPOINTS: pymatgen v2020.8.13 with grid density = 

Automatic generation of k-mesh.
 Grid dimensions read from file:
 generate k-points for:    2    2    1

 Generating k-lattice:

  Cartesian coordinates                     Fractional coordinates (reciprocal lattice)
     0.059234796  0.000000000  0.000000000     0.500000000  0.000000000  0.000000000
     0.000000000  0.059234796  0.000000000     0.000000000  0.500000000  0.000000000
     0.000000000  0.000000000  0.046880702     0.000000000  0.000000000  1.000000000

  Length of vectors
     0.059234796  0.059234796  0.046880702

  Shift w.r.t. Gamma in fractional coordinates (k-lattice)
     0.000000000  0.000000000  0.000000000

 
 Subroutine IBZKPT returns following result:
 ===========================================
 
 Found      3 irreducible k-points:
 
 Following reciprocal coordinates:
            Coordinates               Weight
  0.000000  0.000000  0.000000      1.000000
  0.500000  0.000000  0.000000      2.000000
  0.500000  0.500000  0.000000      1.000000
 
 Following cartesian coordinates:
            Coordinates               Weight
  0.000000  0.000000  0.000000      1.000000
  0.059235  0.000000  0.000000      2.000000
  0.059235  0.059235  0.000000      1.000000
 


--------------------------------------------------------------------------------------------------------




 Dimension of arrays:
   k-points           NKPTS =      3   k-points in BZ     NKDIM =      3   number of bands    NBANDS=    320
   number of dos      NEDOS =    301   number of ions     NIONS =     66
   non local maximal  LDIM  =      5   non local SUM 2l+1 LMDIM =     13
   total plane-waves  NPLWV = 373248
   max r-space proj   IRMAX =      1   max aug-charges    IRDMAX=   5039
   dimension x,y,z NGX =    54 NGY =   54 NGZ =  128
   dimension x,y,z NGXF=   108 NGYF=  108 NGZF=  256
   support grid    NGXF=   108 NGYF=  108 NGZF=  256
   ions per type =               1   1  32  32
   NGX,Y,Z   is equivalent  to a cutoff of  10.64, 10.64,  9.98 a.u.
   NGXF,Y,Z  is equivalent  to a cutoff of  21.27, 21.27, 19.95 a.u.

 SYSTEM =  MgO-rocksalt                            
 POSCAR =   C  O Mg  O                             

 Startparameter for this run:
   NWRITE =      2    write-flag & timer
   PREC   = normal    normal or accurate (medium, high low for compatibility)
   ISTART =      0    job   : 0-new  1-cont  2-samecut
   ICHARG =      2    charge: 1-file 2-atom 10-const
   ISPIN  =      1    spin polarized calculation?
   LNONCOLLINEAR =      F non collinear calculations
   LSORBIT =      F    spin-orbit coupling
   INIWAV =      1    electr: 0-lowe 1-rand  2-diag
   LASPH  =      T    aspherical Exc in radial PAW
 Electronic Relaxation 1
   ENCUT  =  600.0 eV  44.10 Ry    6.64 a.u.  16.86 16.86 42.60*2*pi/ulx,y,z
   ENINI  =  600.0     initial cutoff
   ENAUG  =  758.8 eV  augmentation charge cutoff
   NELM   =    200;   NELMIN=  8; NELMDL= -5     # of ELM steps 
   EDIFF  = 0.1E-05   stopping-criterion for ELM
   LREAL  =      F    real-space projection
   NLSPLINE    = F    spline interpolate recip. space projectors
   LCOMPAT=      F    compatible to vasp.4.4
   GGA_COMPAT  = T    GGA compatible to vasp.4.4-vasp.4.6
   LMAXPAW     = -100 max onsite density
   LMAXMIX     =    2 max onsite mixed and CHGCAR
   VOSKOWN=      0    Vosko Wilk Nusair interpolation
   ROPT   =    0.00000   0.00000   0.00000   0.00000
 Ionic relaxation
   EDIFFG = -.1E-01   stopping-criterion for IOM
   NSW    =      0    number of steps for IOM
   NBLOCK =      1;   KBLOCK =      1    inner block; outer block 
   IBRION =     -1    ionic relax: 0-MD 1-quasi-New 2-CG
   NFREE  =      0    steps in history (QN), initial steepest desc. (CG)
   ISIF   =      2    stress and relaxation
   IWAVPR =     10    prediction:  0-non 1-charg 2-wave 3-comb
   ISYM   =      2    0-nonsym 1-usesym 2-fastsym
   LCORR  =      T    Harris-Foulkes like correction to forces

   POTIM  = 0.5000    time-step for ionic-motion
   TEIN   =    0.0    initial temperature
   TEBEG  =    0.0;   TEEND  =   0.0 temperature during run
   SMASS  =  -3.00    Nose mass-parameter (am)
   estimated Nose-frequenzy (Omega)   =  0.10E-29 period in steps = 0.13E+47 mass=  -0.163E-26a.u.
   SCALEE = 1.0000    scale energy and forces
   NPACO  =    256;   APACO  = 10.0  distance and # of slots for P.C.
   PSTRESS=    0.0 pullay stress

  Mass of Ions in am
   POMASS =  12.01 16.00 24.30 16.00
  Ionic Valenz
   ZVAL   =   4.00  6.00  8.00  6.00
  Atomic Wigner-Seitz radii
   RWIGS  =  -1.00 -1.00 -1.00 -1.00
  virtual crystal weights 
   VCA    =   1.00  1.00  1.00  1.00
   NELECT =     458.0000    total number of electrons
   NUPDOWN=      -1.0000    fix difference up-down

 DOS related values:
   EMIN   =  10.00;   EMAX   =-10.00  energy-range for DOS
   EFERMI =   0.00
   ISMEAR =     0;   SIGMA  =   0.05  broadening in eV -4-tet -1-fermi 0-gaus

 Electronic relaxation 2 (details)
   IALGO  =     58    algorithm
   LDIAG  =      T    sub-space diagonalisation (order eigenvalues)
   LSUBROT=      F    optimize rotation matrix (better conditioning)
   TURBO    =      0    0=normal 1=particle mesh
   IRESTART =      0    0=no restart 2=restart with 2 vectors
   NREBOOT  =      0    no. of reboots
   NMIN     =      0    reboot dimension
   EREF     =   0.00    reference energy to select bands
   IMIX   =      4    mixing-type and parameters
     AMIX     =   0.40;   BMIX     =  1.00
     AMIX_MAG =   1.60;   BMIX_MAG =  1.00
     AMIN     =   0.10
     WC   =   100.;   INIMIX=   1;  MIXPRE=   1;  MAXMIX= -45

 Intra band minimization:
   WEIMIN = 0.0000     energy-eigenvalue tresh-hold
   EBREAK =  0.78E-09  absolut break condition
   DEPER  =   0.30     relativ break condition  

   TIME   =   0.40     timestep for ELM

  volume/ion in A,a.u.               =      23.03       155.40
  Fermi-wavevector in a.u.,A,eV,Ry     =   1.097571  2.074108 16.390423  1.204662
  Thomas-Fermi vector in A             =   2.233933

 Write flags
   LWAVE        =      F    write WAVECAR
   LDOWNSAMPLE  =      F    k-point downsampling of WAVECAR
   LCHARG       =      F    write CHGCAR
   LVTOT        =      F    write LOCPOT, total local potential
   LVHAR        =      F    write LOCPOT, Hartree potential only
   LELF         =      F    write electronic localiz. function (ELF)
   LORBIT       =      0    0 simple, 1 ext, 2 COOP (PROOUT), +10 PAW based schemes


 Dipole corrections
   LMONO  =      F    monopole corrections only (constant potential shift)
   LDIPOL =      T    correct potential (dipole corrections)
   IDIPOL =      3    1-x, 2-y, 3-z, 4-all directions 
   EPSILON=  1.0000000 bulk dielectric constant

 Exchange correlation treatment:
   GGA     =    PE    GGA type
   LEXCH   =     8    internal setting for exchange type
   LIBXC   =     F    Libxc                    
   VOSKOWN =     0    Vosko Wilk Nusair interpolation
   LHFCALC =     F    Hartree Fock is set to
   LHFONE  =     F    Hartree Fock one center treatment
   AEXX    =    0.0000 exact exchange contribution

 Linear response parameters
   LEPSILON=     F    determine dielectric tensor
   LRPA    =     F    only Hartree local field effects (RPA)
   LNABLA  =     F    use nabla operator in PAW spheres
   LVEL    =     F    velocity operator in full k-point grid
   CSHIFT  =0.1000    complex shift for real part using Kramers Kronig
   OMEGAMAX=  -1.0    maximum frequency
   DEG_THRESHOLD= 0.2000000E-02 threshold for treating states as degnerate
   RTIME   =   -0.100 relaxation time in fs
  (WPLASMAI=    0.000 imaginary part of plasma frequency in eV, 0.658/RTIME)
   DFIELD  = 0.0000000 0.0000000 0.0000000 field for delta impulse in time

  Optional k-point grid parameters
   LKPOINTS_OPT  =     F    use optional k-point grid
   KPOINTS_OPT_MODE=     1    mode for optional k-point grid

 Orbital magnetization related:
   ORBITALMAG=     F  switch on orbital magnetization
   LCHIMAG   =     F  perturbation theory with respect to B field
   DQ        =  0.001000  dq finite difference perturbation B field
   LLRAUG    =     F  two centre corrections for induced B field



--------------------------------------------------------------------------------------------------------


 Static calculation
 charge density and potential will be updated during run
 non-spin polarized calculation
 Conjugate gradient for all bands (Freysoldt, et al. PRB 79, 241103 (2009))
 preconditioned conjugated gradient                                        
 perform sub-space diagonalisation
    before iterative eigenvector-optimisation
 modified Broyden-mixing scheme, WC =      100.0
 initial mixing is a Kerker type mixing with AMIX =  0.4000 and BMIX =      1.0000
 Hartree-type preconditioning will be used
 using additional bands           91
 reciprocal scheme for non local part
 use partial core corrections
 no Harris-corrections to forces 
 use gradient corrections 
 use of overlap-Matrix (Vanderbilt PP)
 Gauss-broadening in eV      SIGMA  =   0.05


--------------------------------------------------------------------------------------------------------


  energy-cutoff  :      600.00
  volume of cell :     1519.82
      direct lattice vectors                 reciprocal lattice vectors
     8.440984654  0.000000000  0.000000000     0.118469591  0.000000000  0.000000000
     0.000000000  8.440984654  0.000000000     0.000000000  0.118469591  0.000000000
     0.000000000  0.000000000 21.330738491     0.000000000  0.000000000  0.046880702

  length of vectors
     8.440984654  8.440984654 21.330738491     0.118469591  0.118469591  0.046880702



 k-points in units of 2pi/SCALE and weight: pymatgen v2020.8.13 with grid density = 
   0.00000000  0.00000000  0.00000000       0.250
   0.05923480  0.00000000  0.00000000       0.500
   0.05923480  0.05923480  0.00000000       0.250

 k-points in reciprocal lattice and weights: pymatgen v2020.8.13 with grid density = 
   0.00000000  0.00000000  0.00000000       0.250
   0.50000000  0.00000000  0.00000000       0.500
   0.50000000  0.50000000  0.00000000       0.250

 position of ions in fractional coordinates (direct lattice) 
   0.50000000  0.50000000  0.76688110
   0.50000000  0.50000000  0.82064482
   0.00000000  0.75000000  0.35160527
   0.25000000  0.00000000  0.35160527
   0.00000000  0.00000000  0.45053509
   0.25000000  0.75000000  0.45053509
   0.00000000  0.74993927  0.55008324
   0.25006073  0.00000000  0.55008324
   0.00000000  0.00000000  0.64874531
   0.24985833  0.75014167  0.64856955
   0.00000000  0.25000000  0.35160527
   0.25000000  0.50000000  0.35160527
   0.00000000  0.50000000  0.45053509
   0.25000000  0.25000000  0.45053509
   0.00000000  0.25006073  0.55008324
   0.25037838  0.50000000  0.55021952
   0.00000000  0.50000000  0.64861528
   0.24985833  0.24985833  0.64856955
   0.50000000  0.75000000  0.35160527
   0.75000000  0.00000000  0.35160527
   0.50000000  0.00000000  0.45053509
   0.75000000  0.75000000  0.45053509
   0.50000000  0.74962162  0.55021952
   0.74993927  0.00000000  0.55008324
   0.50000000  0.00000000  0.64861528
   0.75014167  0.75014167  0.64856955
   0.50000000  0.25000000  0.35160527
   0.75000000  0.50000000  0.35160527
   0.50000000  0.50000000  0.45053509
   0.75000000  0.25000000  0.45053509
   0.50000000  0.25037838  0.55021952
   0.74962162  0.50000000  0.55021952
   0.50000000  0.50000000  0.65061696
   0.75014167  0.24985833  0.64856955
   0.00000000  0.75000000  0.45053509
   0.25000000  0.00000000  0.45053509
   0.00000000  0.00000000  0.35160527
   0.25000000  0.75000000  0.35160527
   0.00000000  0.75021853  0.65097926
   0.24978147  0.00000000  0.65097926
   0.00000000  0.00000000  0.54980989
   0.24994577  0.75005423  0.54985911
   0.00000000  0.25000000  0.45053509
   0.25000000  0.50000000  0.45053509
   0.00000000  0.50000000  0.35160527
   0.25000000  0.25000000  0.35160527
   0.00000000  0.24978147  0.65097926
   0.24882271  0.50000000  0.65088287
   0.00000000  0.50000000  0.54976267
   0.24994577  0.24994577  0.54985911
   0.50000000  0.75000000  0.45053509
   0.75000000  0.00000000  0.45053509
   0.50000000  0.00000000  0.35160527
   0.75000000  0.75000000  0.35160527
   0.50000000  0.75117729  0.65088287
   0.75021853  0.00000000  0.65097926
   0.50000000  0.00000000  0.54976267
   0.75005423  0.75005423  0.54985911
   0.50000000  0.25000000  0.45053509
   0.75000000  0.50000000  0.45053509
   0.50000000  0.50000000  0.35160527
   0.75000000  0.25000000  0.35160527
   0.50000000  0.24882271  0.65088287
   0.75117729  0.50000000  0.65088287
   0.50000000  0.50000000  0.55023136
   0.75005423  0.24994577  0.54985911

 position of ions in cartesian coordinates  (Angst):
   4.22049233  4.22049233 16.35814023
   4.22049233  4.22049233 17.50496005
   0.00000000  6.33073849  7.50000000
   2.11024616  0.00000000  7.50000000
   0.00000000  0.00000000  9.61024616
   2.11024616  6.33073849  9.61024616
   0.00000000  6.33022585 11.73368172
   2.11075880  0.00000000 11.73368172
   0.00000000  0.00000000 13.83821654
   2.10905031  6.33193435 13.83446740
   0.00000000  2.11024616  7.50000000
   2.11024616  4.22049233  7.50000000
   0.00000000  4.22049233  9.61024616
   2.11024616  2.11024616  9.61024616
   0.00000000  2.11075880 11.73368172
   2.11344006  4.22049233 11.73658877
   0.00000000  4.22049233 13.83544293
   2.10905031  2.10905031 13.83446740
   4.22049233  6.33073849  7.50000000
   6.33073849  0.00000000  7.50000000
   4.22049233  0.00000000  9.61024616
   6.33073849  6.33073849  9.61024616
   4.22049233  6.32754460 11.73658877
   6.33022585  0.00000000 11.73368172
   4.22049233  0.00000000 13.83544293
   6.33193435  6.33193435 13.83446740
   4.22049233  2.11024616  7.50000000
   6.33073849  4.22049233  7.50000000
   4.22049233  4.22049233  9.61024616
   6.33073849  2.11024616  9.61024616
   4.22049233  2.11344006 11.73658877
   6.32754460  4.22049233 11.73658877
   4.22049233  4.22049233 13.87814023
   6.33193435  2.10905031 13.83446740
   0.00000000  6.33073849  9.61024616
   2.11024616  0.00000000  9.61024616
   0.00000000  0.00000000  7.50000000
   2.11024616  6.33073849  7.50000000
   0.00000000  6.33258312 13.88586825
   2.10840153  0.00000000 13.88586825
   0.00000000  0.00000000 11.72785099
   2.10978841  6.33119624 11.72890095
   0.00000000  2.11024616  9.61024616
   2.11024616  4.22049233  9.61024616
   0.00000000  4.22049233  7.50000000
   2.11024616  2.11024616  7.50000000
   0.00000000  2.10840153 13.88586825
   2.10030867  4.22049233 13.88381232
   0.00000000  4.22049233 11.72684365
   2.10978841  2.10978841 11.72890095
   4.22049233  6.33073849  9.61024616
   6.33073849  0.00000000  9.61024616
   4.22049233  0.00000000  7.50000000
   6.33073849  6.33073849  7.50000000
   4.22049233  6.34067598 13.88381232
   6.33258312  0.00000000 13.88586825
   4.22049233  0.00000000 11.72684365
   6.33119624  6.33119624 11.72890095
   4.22049233  2.11024616  9.61024616
   6.33073849  4.22049233  9.61024616
   4.22049233  4.22049233  7.50000000
   6.33073849  2.11024616  7.50000000
   4.22049233  2.10030867 13.88381232
   6.34067598  4.22049233 13.88381232
   4.22049233  4.22049233 11.73684118
   6.33119624  2.10978841 11.72890095



--------------------------------------------------------------------------------------------------------


 k-point   1 :   0.0000 0.0000 0.0000  plane waves:   50745
 k-point   2 :   0.5000 0.0000 0.0000  plane waves:   50798
 k-point   3 :   0.5000 0.5000 0.0000  plane waves:   50752

 maximum and minimum number of plane-waves per node :     12720    12632

 maximum number of plane-waves:     50798
 maximum index in each direction: 
   IXMAX=   16   IYMAX=   16   IZMAX=   42
   IXMIN=  -17   IYMIN=  -17   IZMIN=  -42


 parallel 3D FFT for wavefunctions:
    minimum data exchange during FFTs selected (reduces bandwidth)
 parallel 3D FFT for charge:
    minimum data exchange during FFTs selected (reduces bandwidth)


 total amount of memory used by VASP MPI-rank0    78528. kBytes
=======================================================================

   base      :      30000. kBytes
   nonl-proj :      29343. kBytes
   fftplans  :       3857. kBytes
   grid      :       5885. kBytes
   one-center:        137. kBytes
   wavefun   :       9306. kBytes

     INWAV:  cpu time      0.0001: real time      0.0001
 Broyden mixing: mesh for mixing (old mesh)
   NGX = 33   NGY = 33   NGZ = 85
  (NGX  =108   NGY  =108   NGZ  =256)
  gives a total of  92565 points

 initial charge density was supplied:
 charge density of overlapping atoms calculated
 number of electron     458.0000000 magnetization 
 keeping initial charge density in first step


--------------------------------------------------------------------------------------------------------


 Maximum index for augmentation-charges          334 (set IRDMAX)


--------------------------------------------------------------------------------------------------------


 First call to EWALD:  gamma=   0.154
 Maximum number of real-space cells 4x 4x 2
 Maximum number of reciprocal cells 2x 2x 5

    FEWALD:  cpu time      0.0071: real time      0.0071


--------------------------------------- Iteration      1(   1)  ---------------------------------------


    POTLOK:  cpu time      0.0426: real time      0.0436
    SETDIJ:  cpu time      0.1652: real time      0.1652
    TRIAL :  cpu time      5.4377: real time      5.5287
    CORREC:  cpu time      0.0015: real time      0.0015
    --------------------------------------------
      LOOP:  cpu time      5.6488: real time      5.7690

 eigenvalue-minimisations  :  2304
 total energy-change (2. order) : 0.4153519E+04  (-0.3066876E+05)
 number of electron     458.0000000 magnetization 
 augmentation part      458.0000000 magnetization 

 DIPCOR: dipole corrections for dipol
 direction  3 min pos     1,
 dipolmoment           0.000000      0.000000     -0.000285 electrons x Angstroem
 Tr[quadrupol]     -6318.707560

 energy correction for charged system         0.000000 eV
 dipol+quadrupol energy correction           -0.000000 eV
 added-field ion interaction          0.002320 eV  (added to PSCEN)


 Free energy of the ion-electron system (eV)
  ---------------------------------------------------
  alpha Z        PSCENC =       907.96642378
  Ewald energy   TEWEN  =    137053.32929587
  -Hartree energ DENC   =   -173152.41922951
  -exchange      EXHF   =         0.00000000
  -V(xc)+E(xc)   XCENC  =      1789.17562422
  PAW double counting   =     32310.01086261   -36145.30683839
  entropy T*S    EENTRO =        -0.02420595
  eigenvalues    EBANDS =     -6839.10184543
  atomic energy  EATOM  =     48229.88884101
  ---------------------------------------------------
  free energy    TOTEN  =      4153.51892821 eV

  energy without entropy =     4153.54313415  energy(sigma->0) =     4153.53103118


--------------------------------------------------------------------------------------------------------




--------------------------------------- Iteration      1(   2)  ---------------------------------------


    TRIAL :  cpu time      2.2519: real time      2.2522
    CORREC:  cpu time      0.0003: real time      0.0003
    --------------------------------------------
      LOOP:  cpu time      2.2583: real time      2.2666

 eigenvalue-minimisations  :  2304
 total energy-change (2. order) :-0.4287713E+04  (-0.4214273E+04)
 number of electron     458.0000000 magnetization 
 augmentation part      458.0000000 magnetization 

 DIPCOR: dipole corrections for dipol
 direction  3 min pos     1,
 dipolmoment           0.000000      0.000000     -0.000285 electrons x Angstroem
 Tr[quadrupol]     -6318.707560

 energy correction for charged system         0.000000 eV
 dipol+quadrupol energy correction           -0.000000 eV
 added-field ion interaction          0.002320 eV  (added to PSCEN)


 Free energy of the ion-electron system (eV)
  ---------------------------------------------------
  alpha Z        PSCENC =       907.96642378
  Ewald energy   TEWEN  =    137053.32929587
  -Hartree energ DENC   =   -173152.41922951
  -exchange      EXHF   =         0.00000000
  -V(xc)+E(xc)   XCENC  =      1789.17562422
  PAW double counting   =     32310.01086261   -36145.30683839
  entropy T*S    EENTRO =        -0.00000000
  eigenvalues    EBANDS =    -11126.83902978
  atomic energy  EATOM  =     48229.88884101
  ---------------------------------------------------
  free energy    TOTEN  =      -134.19405020 eV

  energy without entropy =     -134.19405020  energy(sigma->0) =     -134.19405020


--------------------------------------------------------------------------------------------------------




--------------------------------------- Iteration      1(   3)  ---------------------------------------


    TRIAL :  cpu time      2.3601: real time      2.3608
    CORREC:  cpu time      0.0003: real time      0.0003
    --------------------------------------------
      LOOP:  cpu time      2.3655: real time      2.3755

 eigenvalue-minimisations  :  2304
 total energy-change (2. order) :-0.3105453E+03  (-0.3084793E+03)
 number of electron     458.0000000 magnetization 
 augmentation part      458.0000000 magnetization 

 DIPCOR: dipole corrections for dipol
 direction  3 min pos     1,
 dipolmoment           0.000000      0.000000     -0.000285 electrons x Angstroem
 Tr[quadrupol]     -6318.707560

 energy correction for charged system         0.000000 eV
 dipol+quadrupol energy correction           -0.000000 eV
 added-field ion interaction          0.002320 eV  (added to PSCEN)


 Free energy of the ion-electron system (eV)
  ---------------------------------------------------
  alpha Z        PSCENC =       907.96642378
  Ewald energy   TEWEN  =    137053.32929587
  -Hartree energ DENC   =   -173152.41922951
  -exchange      EXHF   =         0.00000000
  -V(xc)+E(xc)   XCENC  =      1789.17562422
  PAW double counting   =     32310.01086261   -36145.30683839
  entropy T*S    EENTRO =        -0.00000000
  eigenvalues    EBANDS =    -11437.38429464
  atomic energy  EATOM  =     48229.88884101
  ---------------------------------------------------
  free energy    TOTEN  =      -444.73931505 eV

  energy without entropy =     -444.73931505  energy(sigma->0) =     -444.73931505


--------------------------------------------------------------------------------------------------------




--------------------------------------- Iteration      1(   4)  ---------------------------------------


    TRIAL :  cpu time      2.3620: real time      2.3621
    CORREC:  cpu time      0.0003: real time      0.0003
    --------------------------------------------
      LOOP:  cpu time      2.3800: real time      2.3807

 eigenvalue-minimisations  :  2368
 total energy-change (2. order) :-0.6021374E+01  (-0.6014229E+01)
 number of electron     458.0000000 magnetization 
 augmentation part      458.0000000 magnetization 

 DIPCOR: dipole corrections for dipol
 direction  3 min pos     1,
 dipolmoment           0.000000      0.000000     -0.000285 electrons x Angstroem
 Tr[quadrupol]     -6318.707560

 energy correction for charged system         0.000000 eV
 dipol+quadrupol energy correction           -0.000000 eV
 added-field ion interaction          0.002320 eV  (added to PSCEN)


 Free energy of the ion-electron system (eV)
  ---------------------------------------------------
  alpha Z        PSCENC =       907.96642378
  Ewald energy   TEWEN  =    137053.32929587
  -Hartree energ DENC   =   -173152.41922951
  -exchange      EXHF   =         0.00000000
  -V(xc)+E(xc)   XCENC  =      1789.17562422
  PAW double counting   =     32310.01086261   -36145.30683839
  entropy T*S    EENTRO =        -0.00000000
  eigenvalues    EBANDS =    -11443.40566904
  atomic energy  EATOM  =     48229.88884101
  ---------------------------------------------------
  free energy    TOTEN  =      -450.76068946 eV

  energy without entropy =     -450.76068946  energy(sigma->0) =     -450.76068946


--------------------------------------------------------------------------------------------------------




--------------------------------------- Iteration      1(   5)  ---------------------------------------


    TRIAL :  cpu time      2.3769: real time      2.3770
    CORREC:  cpu time      0.0003: real time      0.0003
    CHARGE:  cpu time      0.0740: real time      0.0747
    --------------------------------------------
      LOOP:  cpu time      2.4562: real time      2.4664

 eigenvalue-minimisations  :  2368
 total energy-change (2. order) :-0.7806221E-01  (-0.7805921E-01)
 number of electron     457.9999358 magnetization 
 augmentation part      159.5876380 magnetization 

 DIPCOR: dipole corrections for dipol
 direction  3 min pos     1,
 dipolmoment           0.000000      0.000000     -0.000285 electrons x Angstroem
 Tr[quadrupol]     -6318.707560

 energy correction for charged system         0.000000 eV
 dipol+quadrupol energy correction           -0.000000 eV
 added-field ion interaction          0.002320 eV  (added to PSCEN)


 Free energy of the ion-electron system (eV)
  ---------------------------------------------------
  alpha Z        PSCENC =       907.96642378
  Ewald energy   TEWEN  =    137053.32929587
  -Hartree energ DENC   =   -173152.41922951
  -exchange      EXHF   =         0.00000000
  -V(xc)+E(xc)   XCENC  =      1789.17562422
  PAW double counting   =     32310.01086261   -36145.30683839
  entropy T*S    EENTRO =        -0.00000000
  eigenvalues    EBANDS =    -11443.48373125
  atomic energy  EATOM  =     48229.88884101
  ---------------------------------------------------
  free energy    TOTEN  =      -450.83875167 eV

  energy without entropy =     -450.83875167  energy(sigma->0) =     -450.83875167


--------------------------------------------------------------------------------------------------------




--------------------------------------- Iteration      1(   6)  ---------------------------------------


    POTLOK:  cpu time      0.0353: real time      0.0353
    SETDIJ:  cpu time      0.1859: real time      0.1859
    TRIAL :  cpu time      0.6716: real time      0.6721
    CORREC:  cpu time      0.5285: real time      0.5286
    CHARGE:  cpu time      0.0547: real time      0.0547
    --------------------------------------------
      LOOP:  cpu time      1.4896: real time      1.4905

 eigenvalue-minimisations  :     0
 total energy-change (2. order) : 0.1740809E+03  (-0.9611675E+02)
 number of electron     457.9999251 magnetization 
 augmentation part      156.6864782 magnetization 

 DIPCOR: dipole corrections for dipol
 direction  3 min pos     1,
 dipolmoment           0.000000      0.000000      0.172853 electrons x Angstroem
 Tr[quadrupol]     -6355.775523

 energy correction for charged system         0.000000 eV
 dipol+quadrupol energy correction           -0.001779 eV
 added-field ion interaction         -1.407639 eV  (added to PSCEN)


 Free energy of the ion-electron system (eV)
  ---------------------------------------------------
  alpha Z        PSCENC =       904.47610123
  Ewald energy   TEWEN  =    137053.32929587
  -Hartree energ DENC   =   -177021.91062556
  -exchange      EXHF   =         0.00000000
  -V(xc)+E(xc)   XCENC  =      1914.76012854
  PAW double counting   =     36991.23697140   -40781.18749283
  entropy T*S    EENTRO =        -0.00000000
  eigenvalues    EBANDS =     -7567.35108382
  atomic energy  EATOM  =     48229.88884101
  ---------------------------------------------------
  free energy    TOTEN  =      -276.75786415 eV

  energy without entropy =     -276.75786415  energy(sigma->0) =     -276.75786415


--------------------------------------------------------------------------------------------------------




--------------------------------------- Iteration      1(   7)  ---------------------------------------


    POTLOK:  cpu time      0.0305: real time      0.0305
    SETDIJ:  cpu time      0.1867: real time      0.1867
    TRIAL :  cpu time      0.5996: real time      0.5997
    CORREC:  cpu time      0.5133: real time      0.5133
    CHARGE:  cpu time      0.0541: real time      0.0541
    --------------------------------------------
      LOOP:  cpu time      1.3900: real time      1.3992

 eigenvalue-minimisations  :     0
 total energy-change (2. order) :-0.9651566E+02  (-0.6887933E+01)
 number of electron     457.9999241 magnetization 
 augmentation part      154.8059212 magnetization 

 DIPCOR: dipole corrections for dipol
 direction  3 min pos     1,
 dipolmoment           0.000000      0.000000      0.155230 electrons x Angstroem
 Tr[quadrupol]     -6361.059450

 energy correction for charged system         0.000000 eV
 dipol+quadrupol energy correction           -0.001434 eV
 added-field ion interaction         -1.264124 eV  (added to PSCEN)


 Free energy of the ion-electron system (eV)
  ---------------------------------------------------
  alpha Z        PSCENC =       906.30369359
  Ewald energy   TEWEN  =    137053.32929587
  -Hartree energ DENC   =   -175179.39953697
  -exchange      EXHF   =         0.00000000
  -V(xc)+E(xc)   XCENC  =      1846.10344287
  PAW double counting   =     35883.45057092   -39742.41866664
  entropy T*S    EENTRO =        -0.00000000
  eigenvalues    EBANDS =     -9370.53116403
  atomic energy  EATOM  =     48229.88884101
  ---------------------------------------------------
  free energy    TOTEN  =      -373.27352337 eV

  energy without entropy =     -373.27352337  energy(sigma->0) =     -373.27352337


--------------------------------------------------------------------------------------------------------




--------------------------------------- Iteration      1(   8)  ---------------------------------------


    POTLOK:  cpu time      0.0311: real time      0.0311
    SETDIJ:  cpu time      0.1860: real time      0.1860
    TRIAL :  cpu time      0.6002: real time      0.6002
    CORREC:  cpu time      0.5141: real time      0.5141
    CHARGE:  cpu time      0.0538: real time      0.0538
    --------------------------------------------
      LOOP:  cpu time      1.3990: real time      1.3994

 eigenvalue-minimisations  :     0
 total energy-change (2. order) :-0.6903650E+01  (-0.4348467E+01)
 number of electron     457.9999224 magnetization 
 augmentation part      154.9240134 magnetization 

 DIPCOR: dipole corrections for dipol
 direction  3 min pos     1,
 dipolmoment           0.000000      0.000000      0.105394 electrons x Angstroem
 Tr[quadrupol]     -6359.222990

 energy correction for charged system         0.000000 eV
 dipol+quadrupol energy correction           -0.000661 eV
 added-field ion interaction         -0.858286 eV  (added to PSCEN)


 Free energy of the ion-electron system (eV)
  ---------------------------------------------------
  alpha Z        PSCENC =       906.83758152
  Ewald energy   TEWEN  =    137053.32929587
  -Hartree energ DENC   =   -175071.46880257
  -exchange      EXHF   =         0.00000000
  -V(xc)+E(xc)   XCENC  =      1836.30582650
  PAW double counting   =     35767.80650544   -39557.14425952
  entropy T*S    EENTRO =        -0.00000000
  eigenvalues    EBANDS =     -9545.73216114
  atomic energy  EATOM  =     48229.88884101
  ---------------------------------------------------
  free energy    TOTEN  =      -380.17717288 eV

  energy without entropy =     -380.17717288  energy(sigma->0) =     -380.17717288


--------------------------------------------------------------------------------------------------------




--------------------------------------- Iteration      1(   9)  ---------------------------------------


    POTLOK:  cpu time      0.0298: real time      0.0298
    SETDIJ:  cpu time      0.1875: real time      0.1875
    TRIAL :  cpu time      0.6009: real time      0.6009
    CORREC:  cpu time      0.5133: real time      0.5134
    CHARGE:  cpu time      0.0543: real time      0.0543
    --------------------------------------------
      LOOP:  cpu time      1.3913: real time      1.4001

 eigenvalue-minimisations  :     0
 total energy-change (2. order) :-0.4264084E+01  (-0.1729257E+01)
 number of electron     457.9999224 magnetization 
 augmentation part      154.9437647 magnetization 

 DIPCOR: dipole corrections for dipol
 direction  3 min pos     1,
 dipolmoment           0.000000      0.000000      0.147122 electrons x Angstroem
 Tr[quadrupol]     -6351.673843

 energy correction for charged system         0.000000 eV
 dipol+quadrupol energy correction           -0.001289 eV
 added-field ion interaction         -1.198096 eV  (added to PSCEN)


 Free energy of the ion-electron system (eV)
  ---------------------------------------------------
  alpha Z        PSCENC =       907.21285189
  Ewald energy   TEWEN  =    137053.32929587
  -Hartree energ DENC   =   -174933.33793736
  -exchange      EXHF   =         0.00000000
  -V(xc)+E(xc)   XCENC  =      1835.66402037
  PAW double counting   =     35683.43747934   -39509.30776633
  entropy T*S    EENTRO =        -0.00000000
  eigenvalues    EBANDS =     -9651.32804210
  atomic energy  EATOM  =     48229.88884101
  ---------------------------------------------------
  free energy    TOTEN  =      -384.44125731 eV

  energy without entropy =     -384.44125731  energy(sigma->0) =     -384.44125731


--------------------------------------------------------------------------------------------------------




--------------------------------------- Iteration      1(  10)  ---------------------------------------


    POTLOK:  cpu time      0.0294: real time      0.0294
    SETDIJ:  cpu time      0.1876: real time      0.1876
    TRIAL :  cpu time      0.6004: real time      0.6005
    CORREC:  cpu time      0.5140: real time      0.5140
    CHARGE:  cpu time      0.0541: real time      0.0542
    --------------------------------------------
      LOOP:  cpu time      1.3996: real time      1.3999

 eigenvalue-minimisations  :     0
 total energy-change (2. order) :-0.1746246E+01  (-0.5904851E+00)
 number of electron     457.9999230 magnetization 
 augmentation part      154.9066290 magnetization 

 DIPCOR: dipole corrections for dipol
 direction  3 min pos     1,
 dipolmoment           0.000000      0.000000      0.166556 electrons x Angstroem
 Tr[quadrupol]     -6350.725333

 energy correction for charged system         0.000000 eV
 dipol+quadrupol energy correction           -0.001651 eV
 added-field ion interaction         -1.356359 eV  (added to PSCEN)


 Free energy of the ion-electron system (eV)
  ---------------------------------------------------
  alpha Z        PSCENC =       906.84775327
  Ewald energy   TEWEN  =    137053.32929587
  -Hartree energ DENC   =   -174753.47817460
  -exchange      EXHF   =         0.00000000
  -V(xc)+E(xc)   XCENC  =      1833.96652203
  PAW double counting   =     35576.93855838   -39410.79036756
  entropy T*S    EENTRO =        -0.00000000
  eigenvalues    EBANDS =     -9822.88993192
  atomic energy  EATOM  =     48229.88884101
  ---------------------------------------------------
  free energy    TOTEN  =      -386.18750351 eV

  energy without entropy =     -386.18750351  energy(sigma->0) =     -386.18750351


--------------------------------------------------------------------------------------------------------




--------------------------------------- Iteration      1(  11)  ---------------------------------------


    POTLOK:  cpu time      0.0296: real time      0.0296
    SETDIJ:  cpu time      0.1873: real time      0.1874
    TRIAL :  cpu time      0.5999: real time      0.5999
    CORREC:  cpu time      0.5138: real time      0.5138
    CHARGE:  cpu time      0.0543: real time      0.0543
    --------------------------------------------
      LOOP:  cpu time      1.3895: real time      1.3994

 eigenvalue-minimisations  :     0
 total energy-change (2. order) :-0.5916595E+00  (-0.2085644E+00)
 number of electron     457.9999234 magnetization 
 augmentation part      155.0024878 magnetization 

 DIPCOR: dipole corrections for dipol
 direction  3 min pos     1,
 dipolmoment           0.000000      0.000000      0.147557 electrons x Angstroem
 Tr[quadrupol]     -6351.567088

 energy correction for charged system         0.000000 eV
 dipol+quadrupol energy correction           -0.001296 eV
 added-field ion interaction         -1.201639 eV  (added to PSCEN)


 Free energy of the ion-electron system (eV)
  ---------------------------------------------------
  alpha Z        PSCENC =       906.63876565
  Ewald energy   TEWEN  =    137053.32929587
  -Hartree energ DENC   =   -174690.45196908
  -exchange      EXHF   =         0.00000000
  -V(xc)+E(xc)   XCENC  =      1833.00224142
  PAW double counting   =     35520.60635264   -39346.39414022
  entropy T*S    EENTRO =        -0.00000000
  eigenvalues    EBANDS =     -9893.39855028
  atomic energy  EATOM  =     48229.88884101
  ---------------------------------------------------
  free energy    TOTEN  =      -386.77916297 eV

  energy without entropy =     -386.77916297  energy(sigma->0) =     -386.77916297


--------------------------------------------------------------------------------------------------------




--------------------------------------- Iteration      1(  12)  ---------------------------------------


    POTLOK:  cpu time      0.0293: real time      0.0293
    SETDIJ:  cpu time      0.1874: real time      0.1874
    TRIAL :  cpu time      0.5995: real time      0.5996
    CORREC:  cpu time      0.5145: real time      0.5145
    CHARGE:  cpu time      0.0547: real time      0.0547
    --------------------------------------------
      LOOP:  cpu time      1.3898: real time      1.3996

 eigenvalue-minimisations  :     0
 total energy-change (2. order) :-0.2085520E+00  (-0.7244617E-01)
 number of electron     457.9999236 magnetization 
 augmentation part      155.1048720 magnetization 

 DIPCOR: dipole corrections for dipol
 direction  3 min pos     1,
 dipolmoment           0.000000      0.000000      0.133955 electrons x Angstroem
 Tr[quadrupol]     -6352.265541

 energy correction for charged system         0.000000 eV
 dipol+quadrupol energy correction           -0.001068 eV
 added-field ion interaction         -1.090869 eV  (added to PSCEN)


 Free energy of the ion-electron system (eV)
  ---------------------------------------------------
  alpha Z        PSCENC =       906.75791412
  Ewald energy   TEWEN  =    137053.32929587
  -Hartree energ DENC   =   -174715.75665633
  -exchange      EXHF   =         0.00000000
  -V(xc)+E(xc)   XCENC  =      1833.27867832
  PAW double counting   =     35508.71433141   -39332.88108469
  entropy T*S    EENTRO =        -0.00000000
  eigenvalues    EBANDS =     -9870.31903464
  atomic energy  EATOM  =     48229.88884101
  ---------------------------------------------------
  free energy    TOTEN  =      -386.98771493 eV

  energy without entropy =     -386.98771493  energy(sigma->0) =     -386.98771493


--------------------------------------------------------------------------------------------------------




--------------------------------------- Iteration      1(  13)  ---------------------------------------


    POTLOK:  cpu time      0.0293: real time      0.0293
    SETDIJ:  cpu time      0.1877: real time      0.1877
    TRIAL :  cpu time      0.6001: real time      0.6002
    CORREC:  cpu time      0.5136: real time      0.5136
    CHARGE:  cpu time      0.0545: real time      0.0545
    --------------------------------------------
      LOOP:  cpu time      1.3912: real time      1.3998

 eigenvalue-minimisations  :     0
 total energy-change (2. order) :-0.7246502E-01  (-0.3204028E-01)
 number of electron     457.9999235 magnetization 
 augmentation part      155.1383954 magnetization 

 DIPCOR: dipole corrections for dipol
 direction  3 min pos     1,
 dipolmoment           0.000000      0.000000      0.129068 electrons x Angstroem
 Tr[quadrupol]     -6352.669800

 energy correction for charged system         0.000000 eV
 dipol+quadrupol energy correction           -0.000992 eV
 added-field ion interaction         -1.051076 eV  (added to PSCEN)


 Free energy of the ion-electron system (eV)
  ---------------------------------------------------
  alpha Z        PSCENC =       906.87736226
  Ewald energy   TEWEN  =    137053.32929587
  -Hartree energ DENC   =   -174744.89112695
  -exchange      EXHF   =         0.00000000
  -V(xc)+E(xc)   XCENC  =      1833.57712612
  PAW double counting   =     35507.87643440   -39334.95470957
  entropy T*S    EENTRO =        -0.00000000
  eigenvalues    EBANDS =     -9838.76340309
  atomic energy  EATOM  =     48229.88884101
  ---------------------------------------------------
  free energy    TOTEN  =      -387.06017995 eV

  energy without entropy =     -387.06017995  energy(sigma->0) =     -387.06017995


--------------------------------------------------------------------------------------------------------




--------------------------------------- Iteration      1(  14)  ---------------------------------------


    POTLOK:  cpu time      0.0292: real time      0.0292
    SETDIJ:  cpu time      0.1876: real time      0.1876
    TRIAL :  cpu time      0.5994: real time      0.5994
    CORREC:  cpu time      0.5147: real time      0.5147
    CHARGE:  cpu time      0.0546: real time      0.0546
    --------------------------------------------
      LOOP:  cpu time      1.3925: real time      1.4002

 eigenvalue-minimisations  :     0
 total energy-change (2. order) :-0.3206253E-01  (-0.1497567E-01)
 number of electron     457.9999235 magnetization 
 augmentation part      155.1234873 magnetization 

 DIPCOR: dipole corrections for dipol
 direction  3 min pos     1,
 dipolmoment           0.000000      0.000000      0.127647 electrons x Angstroem
 Tr[quadrupol]     -6352.985499

 energy correction for charged system         0.000000 eV
 dipol+quadrupol energy correction           -0.000970 eV
 added-field ion interaction         -1.039502 eV  (added to PSCEN)


 Free energy of the ion-electron system (eV)
  ---------------------------------------------------
  alpha Z        PSCENC =       906.91745083
  Ewald energy   TEWEN  =    137053.32929587
  -Hartree energ DENC   =   -174757.70250887
  -exchange      EXHF   =         0.00000000
  -V(xc)+E(xc)   XCENC  =      1833.58383395
  PAW double counting   =     35507.44838560   -39336.02713221
  entropy T*S    EENTRO =        -0.00000000
  eigenvalues    EBANDS =     -9824.53040866
  atomic energy  EATOM  =     48229.88884101
  ---------------------------------------------------
  free energy    TOTEN  =      -387.09224247 eV

  energy without entropy =     -387.09224247  energy(sigma->0) =     -387.09224247


--------------------------------------------------------------------------------------------------------




--------------------------------------- Iteration      1(  15)  ---------------------------------------


    POTLOK:  cpu time      0.0299: real time      0.0299
    SETDIJ:  cpu time      0.1875: real time      0.1875
    TRIAL :  cpu time      0.6000: real time      0.6000
    CORREC:  cpu time      0.5121: real time      0.5124
    CHARGE:  cpu time      0.0544: real time      0.0544
    --------------------------------------------
      LOOP:  cpu time      1.3981: real time      1.3986

 eigenvalue-minimisations  :     0
 total energy-change (2. order) :-0.1498581E-01  (-0.6230413E-02)
 number of electron     457.9999235 magnetization 
 augmentation part      155.1098883 magnetization 

 DIPCOR: dipole corrections for dipol
 direction  3 min pos     1,
 dipolmoment           0.000000      0.000000      0.127325 electrons x Angstroem
 Tr[quadrupol]     -6353.238590

 energy correction for charged system         0.000000 eV
 dipol+quadrupol energy correction           -0.000965 eV
 added-field ion interaction         -1.036878 eV  (added to PSCEN)


 Free energy of the ion-electron system (eV)
  ---------------------------------------------------
  alpha Z        PSCENC =       906.92451538
  Ewald energy   TEWEN  =    137053.32929587
  -Hartree energ DENC   =   -174766.41996550
  -exchange      EXHF   =         0.00000000
  -V(xc)+E(xc)   XCENC  =      1833.59853021
  PAW double counting   =     35510.66687711   -39338.48927564
  entropy T*S    EENTRO =        -0.00000000
  eigenvalues    EBANDS =     -9816.60604673
  atomic energy  EATOM  =     48229.88884101
  ---------------------------------------------------
  free energy    TOTEN  =      -387.10722829 eV

  energy without entropy =     -387.10722829  energy(sigma->0) =     -387.10722829


--------------------------------------------------------------------------------------------------------




--------------------------------------- Iteration      1(  16)  ---------------------------------------


    POTLOK:  cpu time      0.0292: real time      0.0292
    SETDIJ:  cpu time      0.1877: real time      0.1877
    TRIAL :  cpu time      0.6004: real time      0.6004
    CORREC:  cpu time      0.5142: real time      0.5143
    CHARGE:  cpu time      0.0545: real time      0.0545
    --------------------------------------------
      LOOP:  cpu time      1.3910: real time      1.4006

 eigenvalue-minimisations  :     0
[...]
    291       8.4597      0.00000
    292       8.5154      0.00000
    293       8.5181      0.00000
    294       8.5236      0.00000
    295       8.5579      0.00000
    296       8.5846      0.00000
    297       8.5997      0.00000
    298       8.6086      0.00000
    299       8.6120      0.00000
    300       8.7974      0.00000
    301       8.8692      0.00000
    302       8.9022      0.00000
    303       8.9029      0.00000
    304       9.1170      0.00000
    305       9.3521      0.00000
    306       9.3928      0.00000
    307       9.4073      0.00000
    308       9.4570      0.00000
    309       9.5265      0.00000
    310       9.5450      0.00000
    311       9.5583      0.00000
    312       9.7414      0.00000
    313       9.7821      0.00000
    314       9.8299      0.00000
    315       9.8333      0.00000
    316       9.8594      0.00000
    317      10.2312      0.00000
    318      10.2585      0.00000
    319      10.3492      0.00000
    320      10.3550      0.00000


--------------------------------------------------------------------------------------------------------


 soft charge-density along one line, spin component           1
         0         1         2         3         4         5         6         7         8         9
 total charge-density along one line

 pseudopotential strength for first ion, spin component:           1
 10.228  13.602   0.000   0.032   0.000  -0.000  -0.095  -0.000
 13.602  18.089   0.000   0.042   0.000  -0.000  -0.126  -0.000
  0.000   0.000  -4.367  -0.000   0.000   8.554   0.000  -0.000
  0.032   0.042  -0.000  -4.405  -0.000   0.000   8.611   0.000
  0.000   0.000   0.000  -0.000  -4.367  -0.000   0.000   8.554
 -0.000  -0.000   8.554   0.000  -0.000 -18.895  -0.000  -0.000
 -0.095  -0.126   0.000   8.611   0.000  -0.000 -18.972  -0.000
 -0.000  -0.000  -0.000   0.000   8.554  -0.000  -0.000 -18.895
 total augmentation occupancy for first ion, spin component:           1
  7.269  -3.287   0.000   2.022   0.000  -0.000   0.371   0.000
 -3.287   1.873   0.000  -1.544   0.000   0.000  -0.225   0.000
  0.000   0.000   0.837   0.000   0.000   0.059   0.000   0.000
  2.022  -1.544   0.000   2.225   0.000   0.000   0.210  -0.000
  0.000   0.000   0.000   0.000   0.837   0.000   0.000   0.059
 -0.000   0.000   0.059   0.000   0.000   0.004   0.000   0.000
  0.371  -0.225   0.000   0.210   0.000   0.000   0.029   0.000
  0.000   0.000   0.000  -0.000   0.059   0.000   0.000   0.004


------------------------ aborting loop because EDIFF is reached ----------------------------------------


    FORLOC:  cpu time      0.0041: real time      0.0041
    FORNL :  cpu time      0.4203: real time      0.4205
    STRESS:  cpu time      1.3328: real time      1.3331
    FORCOR:  cpu time      0.0268: real time      0.0268
    OFIELD:  cpu time      0.0001: real time      0.0001

  DFT-D2 method for vdW energy calculation
  -------------------------------------------------------------------

  Parameters of vdW forcefield:
         C6(Jnm^6/mol)     R0(A)
   -----------------------------
   C        1.750          1.452
   O        0.700          1.342
   Mg       0.630          1.243
   O        0.700          1.342

  vdW correction parametrized for the method pbe       

  IVDW =   1
  VDW_RADIUS =    50.000 A
  VDW_S6 =     0.750
  VDW_SR =     1.000
  VDW_D =    20.000
  LVDW_EWALD = F

  Number of pair interactions contributing to vdW energy:  768258
  Edisp (eV):   -3.69232
    FORVDW:  cpu time      0.1850: real time      0.1850

  FORCE on cell =-STRESS in cart. coord.  units (eV):
  Direction    XX          YY          ZZ          XY          YZ          ZX
  --------------------------------------------------------------------------------------
  Alpha Z   907.96410   907.96410   907.96410
  Ewald  157554.75551157554.75551************     0.00000     0.00000    -0.00000
  Hartree167963.51083167963.51083************    -0.00000    -0.00000    -0.00000
  E(xc)   -2500.77621 -2500.77621 -2504.69187     0.00000     0.00000     0.00000
  Local  ************************335108.31835    -0.00000     0.00000    -0.00000
  n-local -2830.42109 -2831.23962 -2861.94396    -0.00000     0.00000     0.00000
  augment  1054.01388  1054.01388  1044.17233    -0.00000     0.00000    -0.00000
  Kinetic  7493.94940  7496.55529  7517.79466     0.00000     0.00000    -0.00001
  Fock        0.00000     0.00000     0.00000     0.00000     0.00000     0.00000
  vdW        -5.37558    -5.37558    -4.44446    -0.00000     0.00000    -0.00000
  -------------------------------------------------------------------------------------
  Total     -24.12373   -24.12373    -0.77931     0.00000     0.00000     0.00000
  in kB     -25.43097   -25.43097    -0.82154     0.00000     0.00000     0.00000
  external pressure =      -17.23 kB  Pullay stress =        0.00 kB


 VOLUME and BASIS-vectors are now :
 -----------------------------------------------------------------------------
  energy-cutoff  :      600.00
  volume of cell :     1519.82
      direct lattice vectors                 reciprocal lattice vectors
     8.440984654  0.000000000  0.000000000     0.118469591  0.000000000  0.000000000
     0.000000000  8.440984654  0.000000000     0.000000000  0.118469591  0.000000000
     0.000000000  0.000000000 21.330738491     0.000000000  0.000000000  0.046880702

  length of vectors
     8.440984654  8.440984654 21.330738491     0.118469591  0.118469591  0.046880702


 FORCES acting on ions:
    Electron-Ion                     Ewald-Force                    Non-Local-Force
 -----------------------------------------------------------------------------------------------
   0.106E-12 0.431E-12 -.828E+03   -.111E-13 -.222E-14 0.802E+03   0.662E-23 0.000E+00 0.268E+02
   0.454E-12 0.217E-11 -.143E+04   -.577E-14 0.200E-14 0.149E+04   0.000E+00 0.000E+00 -.599E+02
   -.599E-13 -.125E+00 0.208E+04   0.560E-13 0.125E+00 -.207E+04   0.265E-22 -.238E-03 -.704E+01
   0.125E+00 -.478E-12 0.208E+04   -.125E+00 0.671E-13 -.207E+04   0.238E-03 0.463E-22 -.704E+01
   -.603E-13 -.306E-12 0.713E+03   -.150E-10 0.150E-10 -.713E+03   0.000E+00 0.000E+00 0.501E+00
   0.446E+00 -.446E+00 0.714E+03   -.442E+00 0.442E+00 -.714E+03   -.256E-02 0.256E-02 0.527E+00
   -.561E-13 -.276E+01 -.643E+03   0.157E-11 0.275E+01 0.643E+03   0.827E-23 0.139E-01 -.163E+00
   0.276E+01 0.875E-13 -.643E+03   -.275E+01 -.151E-11 0.643E+03   -.139E-01 -.265E-22 -.163E+00
   -.486E-13 0.111E-12 -.200E+04   0.444E-12 -.416E-12 0.200E+04   0.000E+00 0.000E+00 0.597E+01
   0.176E+02 -.176E+02 -.198E+04   -.177E+02 0.177E+02 0.198E+04   0.902E-01 -.902E-01 0.605E+01
   -.538E-13 0.125E+00 0.208E+04   -.277E-12 -.125E+00 -.207E+04   0.662E-23 0.238E-03 -.704E+01
   0.119E+00 0.317E-12 0.208E+04   -.116E+00 0.131E-10 -.207E+04   -.173E-02 0.000E+00 -.704E+01
   -.642E-13 0.704E-12 0.714E+03   -.165E-10 0.000E+00 -.714E+03   0.000E+00 0.000E+00 0.466E+00
   0.446E+00 0.446E+00 0.714E+03   -.442E+00 -.442E+00 -.714E+03   -.256E-02 -.256E-02 0.527E+00
   -.647E-13 0.276E+01 -.643E+03   0.304E-11 -.275E+01 0.643E+03   0.000E+00 -.139E-01 -.163E+00
   0.394E+01 0.156E-11 -.636E+03   -.387E+01 0.178E-14 0.636E+03   -.770E-01 -.232E-22 -.262E+00
   -.569E-13 0.106E-11 -.199E+04   -.355E-13 -.995E-13 0.198E+04   0.000E+00 0.000E+00 0.597E+01
   0.176E+02 0.176E+02 -.198E+04   -.177E+02 -.177E+02 0.198E+04   0.902E-01 0.902E-01 0.605E+01
   0.950E-12 -.119E+00 0.208E+04   -.129E-10 0.116E+00 -.207E+04   0.000E+00 0.173E-02 -.704E+01
   -.125E+00 -.475E-12 0.208E+04   0.125E+00 0.471E-13 -.207E+04   -.238E-03 0.000E+00 -.704E+01
   0.837E-12 -.148E-12 0.714E+03   0.145E-11 0.150E-10 -.714E+03   0.331E-23 0.000E+00 0.466E+00
   -.446E+00 -.446E+00 0.714E+03   0.442E+00 0.442E+00 -.714E+03   0.256E-02 0.256E-02 0.527E+00
   0.830E-12 -.394E+01 -.636E+03   -.141E-11 0.387E+01 0.636E+03   -.265E-22 0.770E-01 -.262E+00
   -.276E+01 0.111E-12 -.643E+03   0.275E+01 -.156E-11 0.643E+03   0.139E-01 0.000E+00 -.163E+00
   0.929E-12 -.620E-12 -.199E+04   0.782E-13 -.355E-14 0.198E+04   0.529E-22 0.000E+00 0.597E+01
   -.176E+02 -.176E+02 -.198E+04   0.177E+02 0.177E+02 0.198E+04   -.902E-01 -.902E-01 0.605E+01
   0.921E-12 0.119E+00 0.208E+04   -.131E-10 -.116E+00 -.207E+04   0.000E+00 -.173E-02 -.704E+01
   -.119E+00 -.229E-12 0.208E+04   0.116E+00 0.131E-10 -.207E+04   0.173E-02 0.000E+00 -.704E+01
   0.891E-12 0.205E-11 0.714E+03   -.782E-13 0.355E-14 -.715E+03   0.132E-22 0.000E+00 0.599E+00
   -.446E+00 0.446E+00 0.714E+03   0.442E+00 -.442E+00 -.714E+03   0.256E-02 -.256E-02 0.527E+00
   0.837E-12 0.394E+01 -.636E+03   -.284E-13 -.387E+01 0.636E+03   0.000E+00 -.770E-01 -.262E+00
   -.394E+01 -.129E-11 -.636E+03   0.387E+01 0.000E+00 0.636E+03   0.770E-01 0.132E-22 -.262E+00
   0.924E-12 -.202E-13 -.192E+04   -.426E-13 -.391E-13 0.191E+04   0.000E+00 0.000E+00 0.407E+01
   -.176E+02 0.176E+02 -.198E+04   0.177E+02 -.177E+02 0.198E+04   -.902E-01 0.902E-01 0.605E+01
   -.739E-13 -.389E+00 0.535E+03   0.409E-13 0.385E+00 -.534E+03   -.662E-23 0.664E-02 -.908E-01
   0.389E+00 0.217E-12 0.535E+03   -.385E+00 0.391E-13 -.534E+03   -.664E-02 0.000E+00 -.908E-01
   -.832E-13 -.155E-12 0.156E+04   0.853E-11 -.844E-11 -.156E+04   0.000E+00 0.000E+00 0.349E+01
   0.906E-01 -.906E-01 0.156E+04   -.898E-01 0.898E-01 -.156E+04   -.102E-02 0.102E-02 0.349E+01
   -.641E-13 -.718E+01 -.152E+04   -.871E-12 0.713E+01 0.153E+04   -.331E-23 0.536E-01 -.503E+01
   0.718E+01 0.236E-12 -.152E+04   -.713E+01 0.881E-12 0.153E+04   -.536E-01 -.265E-22 -.503E+01
   -.902E-13 -.227E-12 -.478E+03   -.853E-13 0.639E-13 0.478E+03   0.000E+00 -.116E-22 0.255E+00
   0.248E+01 -.248E+01 -.473E+03   -.247E+01 0.247E+01 0.473E+03   -.551E-02 0.551E-02 0.325E+00
   -.874E-13 0.389E+00 0.535E+03   0.142E-13 -.385E+00 -.534E+03   0.132E-22 -.664E-02 -.908E-01
   0.356E+00 0.751E-12 0.535E+03   -.382E+00 -.764E-11 -.535E+03   0.351E-01 0.000E+00 -.111E+00
   -.101E-12 0.458E-12 0.156E+04   0.845E-11 -.796E-12 -.156E+04   0.265E-22 0.000E+00 0.349E+01
   0.906E-01 0.906E-01 0.156E+04   -.898E-01 -.898E-01 -.156E+04   -.102E-02 -.102E-02 0.349E+01
   -.761E-13 0.718E+01 -.152E+04   -.774E-12 -.713E+01 0.153E+04   -.538E-23 -.536E-01 -.503E+01
   0.227E+02 0.143E-11 -.149E+04   -.224E+02 0.810E-11 0.150E+04   -.317E+00 0.529E-22 -.502E+01
   -.881E-13 0.152E-12 -.474E+03   -.741E-11 0.711E-14 0.473E+03   -.265E-22 0.000E+00 0.280E+00
   0.248E+01 0.248E+01 -.473E+03   -.247E+01 -.247E+01 0.473E+03   -.551E-02 -.551E-02 0.325E+00
   0.321E-12 -.356E+00 0.535E+03   0.764E-11 0.382E+00 -.535E+03   -.132E-22 -.351E-01 -.111E+00
   -.389E+00 0.246E-12 0.535E+03   0.385E+00 0.142E-13 -.534E+03   0.664E-02 -.199E-22 -.908E-01
   0.397E-12 0.519E-12 0.156E+04   0.845E-12 -.846E-11 -.156E+04   0.132E-22 -.529E-22 0.349E+01
   -.906E-01 -.906E-01 0.156E+04   0.898E-01 0.898E-01 -.156E+04   0.102E-02 0.102E-02 0.349E+01
   0.362E-12 -.227E+02 -.149E+04   -.816E-11 0.224E+02 0.150E+04   0.529E-22 0.317E+00 -.502E+01
   -.718E+01 0.269E-12 -.152E+04   0.713E+01 0.924E-12 0.153E+04   0.536E-01 -.529E-22 -.503E+01
   0.334E-12 -.926E-12 -.474E+03   -.711E-14 0.738E-11 0.473E+03   -.662E-23 0.000E+00 0.280E+00
   -.248E+01 -.248E+01 -.473E+03   0.247E+01 0.247E+01 0.473E+03   0.551E-02 0.551E-02 0.325E+00
   0.338E-12 0.356E+00 0.535E+03   0.763E-11 -.382E+00 -.535E+03   0.000E+00 0.351E-01 -.111E+00
   -.356E+00 0.169E-11 0.535E+03   0.382E+00 -.769E-11 -.535E+03   -.351E-01 0.000E+00 -.111E+00
   0.386E-12 0.916E-12 0.156E+04   0.824E-12 -.838E-12 -.156E+04   -.265E-22 0.000E+00 0.348E+01
   -.906E-01 0.906E-01 0.156E+04   0.898E-01 -.898E-01 -.156E+04   0.102E-02 -.102E-02 0.349E+01
   0.370E-12 0.227E+02 -.149E+04   -.820E-11 -.224E+02 0.150E+04   -.331E-22 -.317E+00 -.502E+01
   -.227E+02 -.117E-11 -.149E+04   0.224E+02 0.819E-11 0.150E+04   0.317E+00 0.000E+00 -.502E+01
   0.309E-12 0.202E-12 -.474E+03   -.497E-13 0.426E-13 0.474E+03   0.000E+00 0.000E+00 -.197E+00
   -.248E+01 0.248E+01 -.473E+03   0.247E+01 -.247E+01 0.473E+03   0.551E-02 -.551E-02 0.325E+00
 -----------------------------------------------------------------------------------------------
   0.260E-10 0.125E-10 0.520E+02   0.209E-12 -.100E-12 0.796E-12   -.408E-16 0.867E-18 -.520E+02


 POSITION                                       TOTAL-FORCE (eV/Angst)
 -----------------------------------------------------------------------------------
      4.22049      4.22049     16.35814         0.000000      0.000000      0.313528
      4.22049      4.22049     17.50496         0.000000      0.000000     -0.380534
      0.00000      6.33074      7.50000         0.000000      0.000041      0.350055
      2.11025      0.00000      7.50000        -0.000041      0.000000      0.350055
      0.00000      0.00000      9.61025         0.000000      0.000000      0.031098
      2.11025      6.33074      9.61025         0.001507     -0.001507      0.032796
      0.00000      6.33023     11.73368         0.000000      0.000594      0.035491
      2.11076      0.00000     11.73368        -0.000594      0.000000      0.035491
      0.00000      0.00000     13.83822         0.000000      0.000000     -0.013619
      2.10905      6.33193     13.83447        -0.006233      0.006233     -0.015301
      0.00000      2.11025      7.50000         0.000000     -0.000041      0.350055
      2.11025      4.22049      7.50000         0.000578      0.000000      0.350130
      0.00000      4.22049      9.61025         0.000000      0.000000      0.039380
      2.11025      2.11025      9.61025         0.001507      0.001507      0.032796
      0.00000      2.11076     11.73368         0.000000     -0.000594      0.035491
      2.11344      4.22049     11.73659        -0.004725      0.000000      0.037041
      0.00000      4.22049     13.83544         0.000000      0.000000     -0.016147
      2.10905      2.10905     13.83447        -0.006233     -0.006233     -0.015301
      4.22049      6.33074      7.50000         0.000000     -0.000578      0.350130
      6.33074      0.00000      7.50000         0.000041      0.000000      0.350055
      4.22049      0.00000      9.61025         0.000000      0.000000      0.039380
      6.33074      6.33074      9.61025        -0.001507     -0.001507      0.032796
      4.22049      6.32754     11.73659         0.000000      0.004725      0.037041
      6.33023      0.00000     11.73368         0.000594      0.000000      0.035491
      4.22049      0.00000     13.83544         0.000000      0.000000     -0.016147
      6.33193      6.33193     13.83447         0.006233      0.006233     -0.015301
      4.22049      2.11025      7.50000         0.000000      0.000578      0.350130
      6.33074      4.22049      7.50000        -0.000578      0.000000      0.350130
      4.22049      4.22049      9.61025         0.000000      0.000000      0.045537
      6.33074      2.11025      9.61025        -0.001507      0.001507      0.032796
      4.22049      2.11344     11.73659         0.000000     -0.004725      0.037041
      6.32754      4.22049     11.73659         0.004725      0.000000      0.037041
      4.22049      4.22049     13.87814         0.000000      0.000000      0.105812
      6.33193      2.10905     13.83447         0.006233     -0.006233     -0.015301
      0.00000      6.33074      9.61025         0.000000      0.001962      0.064420
      2.11025      0.00000      9.61025        -0.001962      0.000000      0.064420
      0.00000      0.00000      7.50000         0.000000      0.000000     -0.516812
      2.11025      6.33074      7.50000        -0.000289      0.000289     -0.516540
      0.00000      6.33258     13.88587         0.000000     -0.002445      0.017867
      2.10840      0.00000     13.88587         0.002445      0.000000      0.017867
      0.00000      0.00000     11.72785         0.000000      0.000000      0.017837
      2.10979      6.33120     11.72890         0.003760     -0.003760      0.012378
      0.00000      2.11025      9.61025         0.000000     -0.001962      0.064420
      2.11025      4.22049      9.61025         0.009146      0.000000      0.073325
      0.00000      4.22049      7.50000         0.000000      0.000000     -0.516657
      2.11025      2.11025      7.50000        -0.000289     -0.000289     -0.516540
      0.00000      2.10840     13.88587         0.000000      0.002445      0.017867
      2.10031      4.22049     13.88381         0.002332      0.000000      0.023274
      0.00000      4.22049     11.72684         0.000000      0.000000      0.016248
      2.10979      2.10979     11.72890         0.003760      0.003760      0.012378
      4.22049      6.33074      9.61025         0.000000     -0.009146      0.073325
      6.33074      0.00000      9.61025         0.001962      0.000000      0.064420
      4.22049      0.00000      7.50000         0.000000      0.000000     -0.516657
      6.33074      6.33074      7.50000         0.000289      0.000289     -0.516540
      4.22049      6.34068     13.88381         0.000000     -0.002332      0.023274
      6.33258      0.00000     13.88587        -0.002445      0.000000      0.017867
      4.22049      0.00000     11.72684         0.000000      0.000000      0.016248
      6.33120      6.33120     11.72890        -0.003760     -0.003760      0.012378
      4.22049      2.11025      9.61025         0.000000      0.009146      0.073325
      6.33074      4.22049      9.61025        -0.009146      0.000000      0.073325
      4.22049      4.22049      7.50000         0.000000      0.000000     -0.517183
      6.33074      2.11025      7.50000         0.000289     -0.000289     -0.516540
      4.22049      2.10031     13.88381         0.000000      0.002332      0.023274
      6.34068      4.22049     13.88381        -0.002332      0.000000      0.023274
      4.22049      4.22049     11.73684         0.000000      0.000000      0.008948
      6.33120      2.10979     11.72890        -0.003760      0.003760      0.012378
 -----------------------------------------------------------------------------------
    total drift:                                0.000000      0.000000     -0.016275


--------------------------------------------------------------------------------------------------------



  FREE ENERGIE OF THE ION-ELECTRON SYSTEM (eV)
  ---------------------------------------------------
  free  energy   TOTEN  =      -390.80962151 eV

  energy  without entropy=     -390.80962151  energy(sigma->0) =     -390.80962151



--------------------------------------------------------------------------------------------------------


    POTLOK:  cpu time      0.2305: real time      0.2306


--------------------------------------------------------------------------------------------------------


     LOOP+:  cpu time     47.0633: real time     47.3545
    4ORBIT:  cpu time      0.0000: real time      0.0000

 total amount of memory used by VASP MPI-rank0    78528. kBytes
=======================================================================

   base      :      30000. kBytes
   nonl-proj :      29343. kBytes
   fftplans  :       3857. kBytes
   grid      :       5885. kBytes
   one-center:        137. kBytes
   wavefun   :       9306. kBytes

  
  
 General timing and accounting informations for this job:
 ========================================================
  
                  Total CPU time used (sec):       64.903
                            User time (sec):       63.122
                          System time (sec):        1.781
                         Elapsed time (sec):       70.032
  
                   Maximum memory used (kb):      178048.
                   Average memory used (kb):          N/A
  
                          Minor page faults:        31527
                          Major page faults:           50
                 Voluntary context switches:         7095
