 **********************************************************************
                          MRCC program system
 **********************************************************************
 
                              Written by
     Mihaly Kallay, Peter R. Nagy, David Mester, Laszlo Gyevi-Nagy,
        Jozsef Csoka, P. Bernat Szabo, Zoltan Rolik, Gyula Samu,
     Jozsef Csontos, Bence Hegely, Adam Ganyecz, Istvan Ladjanszki,
       Lorant Szegedy, Bence Ladoczki, Klara Petrov, Mate Farkas,
                    Pal D. Mezei, and Reka A. Horvath
 
        Department of Physical Chemistry and Materials Science
            Budapest University of Technology and Economics
                  Budapest P.O.Box 91, H-1521 Hungary
 
                              www.mrcc.hu
 
                      Release date: March 18, 2022

 ************************ 2023-04-26 04:39:21 *************************
 Executing minp...

 Reading input from MINP...
 
 Input file:
 
calc=DF-MP2
scftype=rhf
verbosity=3
mem=200GB
symm=off
unit=angs
scfiguess=small
scfmaxit=1000
scfalg=locfit1



charge=0
core=2

basis=special
aug-cc-pVTZ
aug-cc-pVTZ
cc-pVTZ
aug-cc-pVTZ
aug-cc-pVTZ
aug-cc-pVTZ
aug-cc-pVTZ
aug-cc-pVTZ
cc-pVTZ
cc-pVTZ
cc-pVTZ
cc-pVTZ
cc-pVTZ
cc-pVTZ
cc-pVTZ
cc-pVTZ
aug-cc-pVTZ
aug-cc-pVTZ
aug-cc-pVTZ
aug-cc-pVTZ
cc-pVTZ
cc-pVTZ
cc-pVTZ
cc-pVTZ
aug-cc-pVTZ
aug-cc-pVTZ
aug-cc-pVTZ
aug-cc-pVTZ
aug-cc-pVTZ
aug-cc-pVTZ
aug-cc-pVTZ
aug-cc-pVTZ
aug-cc-pVTZ
aug-cc-pVTZ
aug-cc-pVTZ
aug-cc-pVTZ
aug-cc-pVTZ
aug-cc-pVTZ
aug-cc-pVTZ
aug-cc-pVTZ
cc-pVTZ
cc-pVTZ
cc-pVTZ
cc-pVTZ
aug-cc-pVTZ
aug-cc-pVTZ
aug-cc-pVTZ
aug-cc-pVTZ
aug-cc-pVTZ
aug-cc-pVTZ
aug-cc-pVTZ
aug-cc-pVTZ
aug-cc-pVTZ
aug-cc-pVTZ
aug-cc-pVTZ
aug-cc-pVTZ
aug-cc-pVTZ
aug-cc-pVTZ
aug-cc-pVTZ
aug-cc-pVTZ

basis_sm=special
def2-SVP
def2-SVP
def2-SVP
def2-SVP
def2-SVP
def2-SVP
def2-SVP
def2-SVP
def2-SVP
def2-SVP
def2-SVP
def2-SVP
def2-SVP
def2-SVP
def2-SVP
def2-SVP
def2-SVP
def2-SVP
def2-SVP
def2-SVP
def2-SVP
def2-SVP
def2-SVP
def2-SVP
def2-SVP
def2-SVP
def2-SVP
def2-SVP
def2-SVP
def2-SVP
def2-SVP
def2-SVP
def2-SVP
def2-SVP
def2-SVP
def2-SVP
def2-SVP
def2-SVP
def2-SVP
def2-SVP
def2-SVP
def2-SVP
def2-SVP
def2-SVP
def2-SVP
def2-SVP
def2-SVP
def2-SVP
def2-SVP
def2-SVP
def2-SVP
def2-SVP
def2-SVP
def2-SVP
def2-SVP
def2-SVP
def2-SVP
def2-SVP
def2-SVP
def2-SVP

dfbasis_scf=special
def2-QZVPP-RI-JK
def2-QZVPP-RI-JK
def2-QZVPP-RI-JK
def2-QZVPP-RI-JK
def2-QZVPP-RI-JK
def2-QZVPP-RI-JK
def2-QZVPP-RI-JK
def2-QZVPP-RI-JK
def2-QZVPP-RI-JK
def2-QZVPP-RI-JK
def2-QZVPP-RI-JK
def2-QZVPP-RI-JK
def2-QZVPP-RI-JK
def2-QZVPP-RI-JK
def2-QZVPP-RI-JK
def2-QZVPP-RI-JK
def2-QZVPP-RI-JK
def2-QZVPP-RI-JK
def2-QZVPP-RI-JK
def2-QZVPP-RI-JK
def2-QZVPP-RI-JK
def2-QZVPP-RI-JK
def2-QZVPP-RI-JK
def2-QZVPP-RI-JK
def2-QZVPP-RI-JK
def2-QZVPP-RI-JK
def2-QZVPP-RI-JK
def2-QZVPP-RI-JK
def2-QZVPP-RI-JK
def2-QZVPP-RI-JK
def2-QZVPP-RI-JK
def2-QZVPP-RI-JK
def2-QZVPP-RI-JK
def2-QZVPP-RI-JK
def2-QZVPP-RI-JK
def2-QZVPP-RI-JK
def2-QZVPP-RI-JK
def2-QZVPP-RI-JK
def2-QZVPP-RI-JK
def2-QZVPP-RI-JK
def2-QZVPP-RI-JK
def2-QZVPP-RI-JK
def2-QZVPP-RI-JK
def2-QZVPP-RI-JK
def2-QZVPP-RI-JK
def2-QZVPP-RI-JK
def2-QZVPP-RI-JK
def2-QZVPP-RI-JK
def2-QZVPP-RI-JK
def2-QZVPP-RI-JK
def2-QZVPP-RI-JK
def2-QZVPP-RI-JK
def2-QZVPP-RI-JK
def2-QZVPP-RI-JK
def2-QZVPP-RI-JK
def2-QZVPP-RI-JK
def2-QZVPP-RI-JK
def2-QZVPP-RI-JK
def2-QZVPP-RI-JK
def2-QZVPP-RI-JK

dfbasis_cor=special
aug-cc-pVTZ-RI
aug-cc-pVTZ-RI
cc-pVTZ-RI
aug-cc-pVTZ-RI
aug-cc-pVTZ-RI
aug-cc-pVTZ-RI
aug-cc-pVTZ-RI
aug-cc-pVTZ-RI
cc-pVTZ-RI
cc-pVTZ-RI
cc-pVTZ-RI
cc-pVTZ-RI
cc-pVTZ-RI
cc-pVTZ-RI
cc-pVTZ-RI
cc-pVTZ-RI
aug-cc-pVTZ-RI
aug-cc-pVTZ-RI
aug-cc-pVTZ-RI
aug-cc-pVTZ-RI
cc-pVTZ-RI
cc-pVTZ-RI
cc-pVTZ-RI
cc-pVTZ-RI
aug-cc-pVTZ-RI
aug-cc-pVTZ-RI
aug-cc-pVTZ-RI
aug-cc-pVTZ-RI
aug-cc-pVTZ-RI
aug-cc-pVTZ-RI
aug-cc-pVTZ-RI
aug-cc-pVTZ-RI
aug-cc-pVTZ-RI
aug-cc-pVTZ-RI
aug-cc-pVTZ-RI
aug-cc-pVTZ-RI
aug-cc-pVTZ-RI
aug-cc-pVTZ-RI
aug-cc-pVTZ-RI
aug-cc-pVTZ-RI
cc-pVTZ-RI
cc-pVTZ-RI
cc-pVTZ-RI
cc-pVTZ-RI
aug-cc-pVTZ-RI
aug-cc-pVTZ-RI
aug-cc-pVTZ-RI
aug-cc-pVTZ-RI
aug-cc-pVTZ-RI
aug-cc-pVTZ-RI
aug-cc-pVTZ-RI
aug-cc-pVTZ-RI
aug-cc-pVTZ-RI
aug-cc-pVTZ-RI
aug-cc-pVTZ-RI
aug-cc-pVTZ-RI
aug-cc-pVTZ-RI
aug-cc-pVTZ-RI
aug-cc-pVTZ-RI
aug-cc-pVTZ-RI

ecp=special
none
none
none
none
none
none
none
none
none
none
none
none
none
none
none
none
none
none
none
none
none
none
none
none
none
none
none
none
none
none
none
none
none
none
none
none
none
none
none
none
none
none
none
none
none
none
none
none
none
none
none
none
none
none
none
none
none
none
none
none

unit=angs
geom=xyz
60
C1 O1 Mg17 O41 ECP97
C     0.00000000000    0.00000000000    2.43329433571
O     0.00000000000    0.00000000000    3.58011415037
Mg    0.00000000000    0.00000000000   -0.00772802266
O    -2.12018425659    0.00000000000   -0.00205593177
O     0.00000000000    2.12018425659   -0.00205593177
O     2.12018425659    0.00000000000   -0.00205593177
O     0.00000000000   -2.12018425659   -0.00205593177
O     0.00000000000    0.00000000000   -2.14902768389
Mg   -2.11144262254    2.11144262254   -0.05140086690
Mg    2.11144262254    2.11144262254   -0.05140086690
Mg    2.11144262254   -2.11144262254   -0.05140086690
Mg   -2.11144262254   -2.11144262254   -0.05140086690
Mg   -2.10705287155    0.00000000000   -2.14928009216
Mg    0.00000000000    2.10705287155   -2.14928009216
Mg    2.10705287155    0.00000000000   -2.14928009216
Mg    0.00000000000   -2.10705287155   -2.14928009216
O    -2.11070451449    2.11070451449   -2.15696791928
O     2.11070451449    2.11070451449   -2.15696791928
O     2.11070451449   -2.11070451449   -2.15696791928
O    -2.11070451449   -2.11070451449   -2.15696791928
Mg   -4.22049352791    0.00000000000   -0.05042534122
Mg    0.00000000000    4.22049352791   -0.05042534122
Mg    4.22049352791    0.00000000000   -0.05042534122
Mg    0.00000000000   -4.22049352791   -0.05042534122
O    -4.22049352791    2.11209139723    0.00000000000
O    -2.11209139723    4.22049352791    0.00000000000
O     2.11209139723    4.22049352791    0.00000000000
O     4.22049352791    2.11209139723    0.00000000000
O     4.22049352791   -2.11209139723    0.00000000000
O     2.11209139723   -4.22049352791    0.00000000000
O    -2.11209139723   -4.22049352791    0.00000000000
O    -4.22049352791   -2.11209139723    0.00000000000
O    -4.22049352791    0.00000000000   -2.15902521756
O     0.00000000000    4.22049352791   -2.15902521756
O     4.22049352791    0.00000000000   -2.15902521756
O     0.00000000000   -4.22049352791   -2.15902521756
O    -2.11024676395    0.00000000000   -4.27562330794
O     0.00000000000    2.11024676395   -4.27562330794
O     2.11024676395    0.00000000000   -4.27562330794
O     0.00000000000   -2.11024676395   -4.27562330794
Mg   -4.22049352791    4.22049352791   -0.04765173215
Mg    4.22049352791    4.22049352791   -0.04765173215
Mg    4.22049352791   -4.22049352791   -0.04765173215
Mg   -4.22049352791   -4.22049352791   -0.04765173215
O    -6.32080279923    0.00000000000   -0.00205593177
O     0.00000000000    6.32080279923   -0.00205593177
O     6.32080279923    0.00000000000   -0.00205593177
O     0.00000000000   -6.32080279923   -0.00205593177
O    -4.22049352791    4.22049352791   -2.15801787533
O     4.22049352791    4.22049352791   -2.15801787533
O     4.22049352791   -4.22049352791   -2.15801787533
O    -4.22049352791   -4.22049352791   -2.15801787533
O    -6.32889565859    4.22049352791    0.00000000000
O    -4.22049352791    6.32889565859    0.00000000000
O     4.22049352791    6.32889565859    0.00000000000
O     6.32889565859    4.22049352791    0.00000000000
O     6.32889565859   -4.22049352791    0.00000000000
O     4.22049352791   -6.32889565859    0.00000000000
O    -4.22049352791   -6.32889565859    0.00000000000
O    -6.32889565859   -4.22049352791    0.00000000000

ghost=serialno
3-60

 
 
 Checking keyword combinations...
 
 Keywords:
 
 active=none
 agrid=ld0006-ld0590
 agrid_pssp=ld0006-ld0194
 agrid_pssp_sm=ld0006-ld0074
 basis=special
 basis_sm=special
 basopt=off
 bfbasis=none
 bfgsmem=10
 bfgstol=1.0d-3
 bpcompo=0.985
 bpcompv=0.98
 bpdfo=0.985
 bpocc=0.985
 bppdo=0.985
 bppdv=0.98
 bpedo=0.985
 bpedv=0.98
 calc=mp2
 ccmaxit=50
 ccprog=mrcc
 ccsdalg=disk
 ccsdmkl=seq
 ccsdrest=off
 ccsdthreads=2
 cctol=6
 charge=0
 cialg=disk
 ciguess=off
 cmpgrp=auto
 comprest=off
 core=2
 corembed=off
 csapprox=off
 cvs=off
 dboc=off
 delocsomofact=
 dendec=cholesky
 dens=0
 dfalg=lineq
 dfbasis_cab=none
 dfbasis_cor=special
 dfbasis_scf=special
 dfbasis_scf_sm=special
 dfintran=drpa
 dft=off
 dhexc=adc(2)
 diag=david
 docc=
 domrad=10.d0
 drpaalg=fit
 dual=off
 dual_df=off
 ecp=special
 edisp=off
 edisp_embed=off
 embed=off
 etemp=300
 epert=none
 eps=
 espcharge=off
 excrad=1.0
 excrad_fin=0.100000000D-02
 fitting=coulomb
 fmm=off
 fmmord=8
 freq=off
 gamma=1.d0
 gauss=spher
 geom=xyz
 gopt=off
 ghost=serialno
 gtol=7
 grdens=off
 gridbatch_cos=2000
 grtol=10
 guido_ct=off
 hamilton=dc
 iface=none
 intalg=auto
 itol=10
 laptol=1.d-2
 lccoporder=trffirst
 lcorthr=normal
 lccrest=off
 lmp2dens=on
 lnoepso=0.d0
 lnoepsv=1e-6
 boysalg=jacobi
 localcc=off
 localcorrsymm=off
 locintrf=disk
 mact=
 maxact=off
 maxdim=100
 maxex=0
 maxmicroit=100
 mcscfiguess=hf
 mem=200gb
 mmprog=
 molden=on
 mpitasks=1
 mulmet=0
 mult=
 nacto=0
 nactv=0
 naf_amp=1.d-2
 naf_cor=off
 naf_scf=off
 nafalg=albe
 naftyp=
 nchol=auto
 ndeps=1e-3
 nstate=1
 nsing=0
 nto=off
 ntrip=0
 occ=
 occri=off
 oniom=off
 oniom_eechg=off
 oniom_pcm=off
 oniom_qcorr=off
 optalg=
 optmaxit=50
 optetol=1e-6
 optex=0
 optgtol=1e-4
 optstol=1e-3
 orblocc=off
 orbloce=off
 orbloco=off
 orblocv=off
 orblocguess=cholesky
 osveps=1e-3
 ovirt=off
 ovltol=1e-7
 ovosnorb=80.0
 pcm=off
 popul=off
 pressure=100000
 pssp=off
 ptfreq=0.0
 ptthreads=2
 qro=off
 qscf=off
 qmmm=off
 redcost_exc=off
 redcost_tddft=off
 refdet=none
 rest=0
 rgrid=log3
 rism=off
 rohfcore=semicanonical
 rohftype=semicanonical
 scfalg=locfit1
 scf_conv=auto
 scfdamp=0.0d0
 scfdamp_mode=off
 scfdamp_end=1000
 scfdamp_dampstep=0.d0
 scfdamp_dtol=0.0d0
 scfdamp_maxfact=0.0d0
 scfdamp_minfact=0.0d0
 scfdiis=on
 scfdiis_dtol=0.0d0
 scfdiis_end=1000
 scfdiis_start=2
 scfdiis_step=1
 scfdiis_watch=off
 scfdiis_wrange=10
 scfdiis_wlimit=5
 scfdiis_delmax=2
 scfdtol=7
 scfext=10
 scfguessdens=
 scfiguess=small
 scfloc=pm
 scflshift=0.20
 scflshift_end=8
 scflshift_dtol=0.0
 scflshift_gaptol=0.20
 scfmaxit=1000
 scftype=rhf
 scftol=6
 scspe=1.d0
 scsph=1.d0
 scsps=1.2d0
 scsps_t=1.2d0
 scspt=0.33333333333333
 scspt_t=0.33333333333333
 scspv=1.d0
 spairtol=1e-4
 sqmprog=
 subminp=top
 symm=0
 talg=occ
 temp=298.15
 test=off
 theodore=off
 tlmo=0.999
 tpao=0.94
 tprint=off
 uncontract=off
 unit=angs
 usedisk=2
 verbosity=3
 wpairtol=0.100000000E-05
 
 Calculating integrals for small-basis SCF...

 ************************ 2023-04-26 04:39:23 *************************
 Executing integ...

 Allocation of 200.0 Gbytes of memory...
 
 
 Number of atoms:                 60
 Charge:                           0
 Number of electrons:             14
 Number of core electrons:         4
 Spin multiplicity:                1
 
                 Cartesian coordinates [bohr]      Atomic mass [AMU]  Z
   1  C     0.00000000    0.00000000    4.59825988    12.000000       6
   2  O     0.00000000    0.00000000    6.76543524    15.994915       8
   3  Mg    0.00000000    0.00000000   -0.01460385     0.000000       0
   4  O    -4.00656758    0.00000000   -0.00388515     0.000000       0
   5  O     0.00000000    4.00656758   -0.00388515     0.000000       0
   6  O     4.00656758    0.00000000   -0.00388515     0.000000       0
   7  O     0.00000000   -4.00656758   -0.00388515     0.000000       0
   8  O     0.00000000    0.00000000   -4.06107376     0.000000       0
   9  Mg   -3.99004829    3.99004829   -0.09713356     0.000000       0
  10  Mg    3.99004829    3.99004829   -0.09713356     0.000000       0
  11  Mg    3.99004829   -3.99004829   -0.09713356     0.000000       0
  12  Mg   -3.99004829   -3.99004829   -0.09713356     0.000000       0
  13  Mg   -3.98175286    0.00000000   -4.06155074     0.000000       0
  14  Mg    0.00000000    3.98175286   -4.06155074     0.000000       0
  15  Mg    3.98175286    0.00000000   -4.06155074     0.000000       0
  16  Mg    0.00000000   -3.98175286   -4.06155074     0.000000       0
  17  O    -3.98865346    3.98865346   -4.07607863     0.000000       0
  18  O     3.98865346    3.98865346   -4.07607863     0.000000       0
  19  O     3.98865346   -3.98865346   -4.07607863     0.000000       0
  20  O    -3.98865346   -3.98865346   -4.07607863     0.000000       0
  21  Mg   -7.97557688    0.00000000   -0.09529008     0.000000       0
  22  Mg    0.00000000    7.97557688   -0.09529008     0.000000       0
  23  Mg    7.97557688    0.00000000   -0.09529008     0.000000       0
  24  Mg    0.00000000   -7.97557688   -0.09529008     0.000000       0
  25  O    -7.97557688    3.99127429    0.00000000     0.000000       0
  26  O    -3.99127429    7.97557688    0.00000000     0.000000       0
  27  O     3.99127429    7.97557688    0.00000000     0.000000       0
  28  O     7.97557688    3.99127429    0.00000000     0.000000       0
  29  O     7.97557688   -3.99127429    0.00000000     0.000000       0
  30  O     3.99127429   -7.97557688    0.00000000     0.000000       0
  31  O    -3.99127429   -7.97557688    0.00000000     0.000000       0
  32  O    -7.97557688   -3.99127429    0.00000000     0.000000       0
  33  O    -7.97557688    0.00000000   -4.07996636     0.000000       0
  34  O     0.00000000    7.97557688   -4.07996636     0.000000       0
  35  O     7.97557688    0.00000000   -4.07996636     0.000000       0
  36  O     0.00000000   -7.97557688   -4.07996636     0.000000       0
  37  O    -3.98778844    0.00000000   -8.07975707     0.000000       0
  38  O     0.00000000    3.98778844   -8.07975707     0.000000       0
  39  O     3.98778844    0.00000000   -8.07975707     0.000000       0
  40  O     0.00000000   -3.98778844   -8.07975707     0.000000       0
  41  Mg   -7.97557688    7.97557688   -0.09004872     0.000000       0
  42  Mg    7.97557688    7.97557688   -0.09004872     0.000000       0
  43  Mg    7.97557688   -7.97557688   -0.09004872     0.000000       0
  44  Mg   -7.97557688   -7.97557688   -0.09004872     0.000000       0
  45  O   -11.94458618    0.00000000   -0.00388515     0.000000       0
  46  O     0.00000000   11.94458618   -0.00388515     0.000000       0
  47  O    11.94458618    0.00000000   -0.00388515     0.000000       0
  48  O     0.00000000  -11.94458618   -0.00388515     0.000000       0
  49  O    -7.97557688    7.97557688   -4.07806276     0.000000       0
  50  O     7.97557688    7.97557688   -4.07806276     0.000000       0
  51  O     7.97557688   -7.97557688   -4.07806276     0.000000       0
  52  O    -7.97557688   -7.97557688   -4.07806276     0.000000       0
  53  O   -11.95987947    7.97557688    0.00000000     0.000000       0
  54  O    -7.97557688   11.95987947    0.00000000     0.000000       0
  55  O     7.97557688   11.95987947    0.00000000     0.000000       0
  56  O    11.95987947    7.97557688    0.00000000     0.000000       0
  57  O    11.95987947   -7.97557688    0.00000000     0.000000       0
  58  O     7.97557688  -11.95987947    0.00000000     0.000000       0
  59  O    -7.97557688  -11.95987947    0.00000000     0.000000       0
  60  O   -11.95987947   -7.97557688    0.00000000     0.000000       0
 
 This molecule is an oblate symmetric top.
 
 Point group: C4v 
 Computational point group: C1  
 
 Cartesian coordinates in standard orientation [bohr]
   1  C     0.00000000    0.00000000    4.70866488
   2  O     0.00000000    0.00000000    6.87584024
   3  Mg    0.00000000    0.00000000    0.09580115
   4  O     4.00656758   -0.00000000    0.10651985
   5  O    -0.00000000   -4.00656758    0.10651985
   6  O    -4.00656758    0.00000000    0.10651985
   7  O     0.00000000    4.00656758    0.10651985
   8  O     0.00000000    0.00000000   -3.95066876
   9  Mg    3.99004829   -3.99004829    0.01327144
  10  Mg   -3.99004829   -3.99004829    0.01327144
  11  Mg   -3.99004829    3.99004829    0.01327144
  12  Mg    3.99004829    3.99004829    0.01327144
  13  Mg    3.98175286   -0.00000000   -3.95114574
  14  Mg   -0.00000000   -3.98175286   -3.95114574
  15  Mg   -3.98175286    0.00000000   -3.95114574
  16  Mg    0.00000000    3.98175286   -3.95114574
  17  O     3.98865346   -3.98865346   -3.96567363
  18  O    -3.98865346   -3.98865346   -3.96567363
  19  O    -3.98865346    3.98865346   -3.96567363
  20  O     3.98865346    3.98865346   -3.96567363
  21  Mg    7.97557688   -0.00000000    0.01511492
  22  Mg   -0.00000000   -7.97557688    0.01511492
  23  Mg   -7.97557688    0.00000000    0.01511492
  24  Mg    0.00000000    7.97557688    0.01511492
  25  O     7.97557688   -3.99127429    0.11040500
  26  O     3.99127429   -7.97557688    0.11040500
  27  O    -3.99127429   -7.97557688    0.11040500
  28  O    -7.97557688   -3.99127429    0.11040500
  29  O    -7.97557688    3.99127429    0.11040500
  30  O    -3.99127429    7.97557688    0.11040500
  31  O     3.99127429    7.97557688    0.11040500
  32  O     7.97557688    3.99127429    0.11040500
  33  O     7.97557688   -0.00000000   -3.96956136
  34  O    -0.00000000   -7.97557688   -3.96956136
  35  O    -7.97557688    0.00000000   -3.96956136
  36  O     0.00000000    7.97557688   -3.96956136
  37  O     3.98778844   -0.00000000   -7.96935207
  38  O    -0.00000000   -3.98778844   -7.96935207
  39  O    -3.98778844    0.00000000   -7.96935207
  40  O     0.00000000    3.98778844   -7.96935207
  41  Mg    7.97557688   -7.97557688    0.02035628
  42  Mg   -7.97557688   -7.97557688    0.02035628
  43  Mg   -7.97557688    7.97557688    0.02035628
  44  Mg    7.97557688    7.97557688    0.02035628
  45  O    11.94458618   -0.00000000    0.10651985
  46  O    -0.00000000  -11.94458618    0.10651985
  47  O   -11.94458618    0.00000000    0.10651985
  48  O     0.00000000   11.94458618    0.10651985
  49  O     7.97557688   -7.97557688   -3.96765776
  50  O    -7.97557688   -7.97557688   -3.96765776
  51  O    -7.97557688    7.97557688   -3.96765776
  52  O     7.97557688    7.97557688   -3.96765776
  53  O    11.95987947   -7.97557688    0.11040500
  54  O     7.97557688  -11.95987947    0.11040500
  55  O    -7.97557688  -11.95987947    0.11040500
  56  O   -11.95987947   -7.97557688    0.11040500
  57  O   -11.95987947    7.97557688    0.11040500
  58  O    -7.97557688   11.95987947    0.11040500
  59  O     7.97557688   11.95987947    0.11040500
  60  O    11.95987947    7.97557688    0.11040500
 
 Nuclear repulsion energy [au]:         22.148646010002
 
 
 Basis set information:
 
 Maximum angular momentum: g
 Maximum number of contracted Gaussians:   13
 Maximum number of primitive Gaussians:    16
 Spherical harmonic GTOs are used.
 
 
 Conventional basis set:
 
   1  C  def2-svp [ 7s 4p 1d | 3s 2p 1d ]
   2  O  def2-svp [ 7s 4p 1d | 3s 2p 1d ]
   3  Mg def2-svp [ 10s 7p 1d | 4s 3p 1d ]
   4  O  def2-svp [ 7s 4p 1d | 3s 2p 1d ]
   5  O  def2-svp [ 7s 4p 1d | 3s 2p 1d ]
   6  O  def2-svp [ 7s 4p 1d | 3s 2p 1d ]
   7  O  def2-svp [ 7s 4p 1d | 3s 2p 1d ]
   8  O  def2-svp [ 7s 4p 1d | 3s 2p 1d ]
   9  Mg def2-svp [ 10s 7p 1d | 4s 3p 1d ]
  10  Mg def2-svp [ 10s 7p 1d | 4s 3p 1d ]
  11  Mg def2-svp [ 10s 7p 1d | 4s 3p 1d ]
  12  Mg def2-svp [ 10s 7p 1d | 4s 3p 1d ]
  13  Mg def2-svp [ 10s 7p 1d | 4s 3p 1d ]
  14  Mg def2-svp [ 10s 7p 1d | 4s 3p 1d ]
  15  Mg def2-svp [ 10s 7p 1d | 4s 3p 1d ]
  16  Mg def2-svp [ 10s 7p 1d | 4s 3p 1d ]
  17  O  def2-svp [ 7s 4p 1d | 3s 2p 1d ]
  18  O  def2-svp [ 7s 4p 1d | 3s 2p 1d ]
  19  O  def2-svp [ 7s 4p 1d | 3s 2p 1d ]
  20  O  def2-svp [ 7s 4p 1d | 3s 2p 1d ]
  21  Mg def2-svp [ 10s 7p 1d | 4s 3p 1d ]
  22  Mg def2-svp [ 10s 7p 1d | 4s 3p 1d ]
  23  Mg def2-svp [ 10s 7p 1d | 4s 3p 1d ]
  24  Mg def2-svp [ 10s 7p 1d | 4s 3p 1d ]
  25  O  def2-svp [ 7s 4p 1d | 3s 2p 1d ]
  26  O  def2-svp [ 7s 4p 1d | 3s 2p 1d ]
  27  O  def2-svp [ 7s 4p 1d | 3s 2p 1d ]
  28  O  def2-svp [ 7s 4p 1d | 3s 2p 1d ]
  29  O  def2-svp [ 7s 4p 1d | 3s 2p 1d ]
  30  O  def2-svp [ 7s 4p 1d | 3s 2p 1d ]
  31  O  def2-svp [ 7s 4p 1d | 3s 2p 1d ]
  32  O  def2-svp [ 7s 4p 1d | 3s 2p 1d ]
  33  O  def2-svp [ 7s 4p 1d | 3s 2p 1d ]
  34  O  def2-svp [ 7s 4p 1d | 3s 2p 1d ]
  35  O  def2-svp [ 7s 4p 1d | 3s 2p 1d ]
  36  O  def2-svp [ 7s 4p 1d | 3s 2p 1d ]
  37  O  def2-svp [ 7s 4p 1d | 3s 2p 1d ]
  38  O  def2-svp [ 7s 4p 1d | 3s 2p 1d ]
  39  O  def2-svp [ 7s 4p 1d | 3s 2p 1d ]
  40  O  def2-svp [ 7s 4p 1d | 3s 2p 1d ]
  41  Mg def2-svp [ 10s 7p 1d | 4s 3p 1d ]
  42  Mg def2-svp [ 10s 7p 1d | 4s 3p 1d ]
  43  Mg def2-svp [ 10s 7p 1d | 4s 3p 1d ]
  44  Mg def2-svp [ 10s 7p 1d | 4s 3p 1d ]
  45  O  def2-svp [ 7s 4p 1d | 3s 2p 1d ]
  46  O  def2-svp [ 7s 4p 1d | 3s 2p 1d ]
  47  O  def2-svp [ 7s 4p 1d | 3s 2p 1d ]
  48  O  def2-svp [ 7s 4p 1d | 3s 2p 1d ]
  49  O  def2-svp [ 7s 4p 1d | 3s 2p 1d ]
  50  O  def2-svp [ 7s 4p 1d | 3s 2p 1d ]
  51  O  def2-svp [ 7s 4p 1d | 3s 2p 1d ]
  52  O  def2-svp [ 7s 4p 1d | 3s 2p 1d ]
  53  O  def2-svp [ 7s 4p 1d | 3s 2p 1d ]
  54  O  def2-svp [ 7s 4p 1d | 3s 2p 1d ]
  55  O  def2-svp [ 7s 4p 1d | 3s 2p 1d ]
  56  O  def2-svp [ 7s 4p 1d | 3s 2p 1d ]
  57  O  def2-svp [ 7s 4p 1d | 3s 2p 1d ]
  58  O  def2-svp [ 7s 4p 1d | 3s 2p 1d ]
  59  O  def2-svp [ 7s 4p 1d | 3s 2p 1d ]
  60  O  def2-svp [ 7s 4p 1d | 3s 2p 1d ]
 
 Basis functions:
            1             2             3             4             5             6             7             8             9            10
    0    1C1s          1C2s          1C3s          1C1pz         1C1py         1C1px         1C2pz         1C2py         1C2px         1C1d-2    
    1    1C1d-1        1C1d0         1C1d+1        1C1d+2        2O1s          2O2s          2O3s          2O1pz         2O1py         2O1px     
    2    2O2pz         2O2py         2O2px         2O1d-2        2O1d-1        2O1d0         2O1d+1        2O1d+2        3Mg1s         3Mg2s     
    3    3Mg3s         3Mg4s         3Mg1pz        3Mg1py        3Mg1px        3Mg2pz        3Mg2py        3Mg2px        3Mg3pz        3Mg3py    
    4    3Mg3px        3Mg1d-2       3Mg1d-1       3Mg1d0        3Mg1d+1       3Mg1d+2       4O1s          4O2s          4O3s          4O1pz     
    5    4O1py         4O1px         4O2pz         4O2py         4O2px         4O1d-2        4O1d-1        4O1d0         4O1d+1        4O1d+2    
    6    5O1s          5O2s          5O3s          5O1pz         5O1py         5O1px         5O2pz         5O2py         5O2px         5O1d-2    
    7    5O1d-1        5O1d0         5O1d+1        5O1d+2        6O1s          6O2s          6O3s          6O1pz         6O1py         6O1px     
    8    6O2pz         6O2py         6O2px         6O1d-2        6O1d-1        6O1d0         6O1d+1        6O1d+2        7O1s          7O2s      
    9    7O3s          7O1pz         7O1py         7O1px         7O2pz         7O2py         7O2px         7O1d-2        7O1d-1        7O1d0     
   10    7O1d+1        7O1d+2        8O1s          8O2s          8O3s          8O1pz         8O1py         8O1px         8O2pz         8O2py     
   11    8O2px         8O1d-2        8O1d-1        8O1d0         8O1d+1        8O1d+2        9Mg1s         9Mg2s         9Mg3s         9Mg4s     
   12    9Mg1pz        9Mg1py        9Mg1px        9Mg2pz        9Mg2py        9Mg2px        9Mg3pz        9Mg3py        9Mg3px        9Mg1d-2   
   13    9Mg1d-1       9Mg1d0        9Mg1d+1       9Mg1d+2      10Mg1s        10Mg2s        10Mg3s        10Mg4s        10Mg1pz       10Mg1py    
   14   10Mg1px       10Mg2pz       10Mg2py       10Mg2px       10Mg3pz       10Mg3py       10Mg3px       10Mg1d-2      10Mg1d-1      10Mg1d0    
   15   10Mg1d+1      10Mg1d+2      11Mg1s        11Mg2s        11Mg3s        11Mg4s        11Mg1pz       11Mg1py       11Mg1px       11Mg2pz    
   16   11Mg2py       11Mg2px       11Mg3pz       11Mg3py       11Mg3px       11Mg1d-2      11Mg1d-1      11Mg1d0       11Mg1d+1      11Mg1d+2   
   17   12Mg1s        12Mg2s        12Mg3s        12Mg4s        12Mg1pz       12Mg1py       12Mg1px       12Mg2pz       12Mg2py       12Mg2px    
   18   12Mg3pz       12Mg3py       12Mg3px       12Mg1d-2      12Mg1d-1      12Mg1d0       12Mg1d+1      12Mg1d+2      13Mg1s        13Mg2s     
   19   13Mg3s        13Mg4s        13Mg1pz       13Mg1py       13Mg1px       13Mg2pz       13Mg2py       13Mg2px       13Mg3pz       13Mg3py    
   20   13Mg3px       13Mg1d-2      13Mg1d-1      13Mg1d0       13Mg1d+1      13Mg1d+2      14Mg1s        14Mg2s        14Mg3s        14Mg4s     
   21   14Mg1pz       14Mg1py       14Mg1px       14Mg2pz       14Mg2py       14Mg2px       14Mg3pz       14Mg3py       14Mg3px       14Mg1d-2   
   22   14Mg1d-1      14Mg1d0       14Mg1d+1      14Mg1d+2      15Mg1s        15Mg2s        15Mg3s        15Mg4s        15Mg1pz       15Mg1py    
   23   15Mg1px       15Mg2pz       15Mg2py       15Mg2px       15Mg3pz       15Mg3py       15Mg3px       15Mg1d-2      15Mg1d-1      15Mg1d0    
   24   15Mg1d+1      15Mg1d+2      16Mg1s        16Mg2s        16Mg3s        16Mg4s        16Mg1pz       16Mg1py       16Mg1px       16Mg2pz    
   25   16Mg2py       16Mg2px       16Mg3pz       16Mg3py       16Mg3px       16Mg1d-2      16Mg1d-1      16Mg1d0       16Mg1d+1      16Mg1d+2   
   26   17O1s         17O2s         17O3s         17O1pz        17O1py        17O1px        17O2pz        17O2py        17O2px        17O1d-2    
   27   17O1d-1       17O1d0        17O1d+1       17O1d+2       18O1s         18O2s         18O3s         18O1pz        18O1py        18O1px     
   28   18O2pz        18O2py        18O2px        18O1d-2       18O1d-1       18O1d0        18O1d+1       18O1d+2       19O1s         19O2s      
   29   19O3s         19O1pz        19O1py        19O1px        19O2pz        19O2py        19O2px        19O1d-2       19O1d-1       19O1d0     
   30   19O1d+1       19O1d+2       20O1s         20O2s         20O3s         20O1pz        20O1py        20O1px        20O2pz        20O2py     
   31   20O2px        20O1d-2       20O1d-1       20O1d0        20O1d+1       20O1d+2       21Mg1s        21Mg2s        21Mg3s        21Mg4s     
   32   21Mg1pz       21Mg1py       21Mg1px       21Mg2pz       21Mg2py       21Mg2px       21Mg3pz       21Mg3py       21Mg3px       21Mg1d-2   
   33   21Mg1d-1      21Mg1d0       21Mg1d+1      21Mg1d+2      22Mg1s        22Mg2s        22Mg3s        22Mg4s        22Mg1pz       22Mg1py    
   34   22Mg1px       22Mg2pz       22Mg2py       22Mg2px       22Mg3pz       22Mg3py       22Mg3px       22Mg1d-2      22Mg1d-1      22Mg1d0    
   35   22Mg1d+1      22Mg1d+2      23Mg1s        23Mg2s        23Mg3s        23Mg4s        23Mg1pz       23Mg1py       23Mg1px       23Mg2pz    
   36   23Mg2py       23Mg2px       23Mg3pz       23Mg3py       23Mg3px       23Mg1d-2      23Mg1d-1      23Mg1d0       23Mg1d+1      23Mg1d+2   
   37   24Mg1s        24Mg2s        24Mg3s        24Mg4s        24Mg1pz       24Mg1py       24Mg1px       24Mg2pz       24Mg2py       24Mg2px    
   38   24Mg3pz       24Mg3py       24Mg3px       24Mg1d-2      24Mg1d-1      24Mg1d0       24Mg1d+1      24Mg1d+2      25O1s         25O2s      
   39   25O3s         25O1pz        25O1py        25O1px        25O2pz        25O2py        25O2px        25O1d-2       25O1d-1       25O1d0     
   40   25O1d+1       25O1d+2       26O1s         26O2s         26O3s         26O1pz        26O1py        26O1px        26O2pz        26O2py     
   41   26O2px        26O1d-2       26O1d-1       26O1d0        26O1d+1       26O1d+2       27O1s         27O2s         27O3s         27O1pz     
   42   27O1py        27O1px        27O2pz        27O2py        27O2px        27O1d-2       27O1d-1       27O1d0        27O1d+1       27O1d+2    
   43   28O1s         28O2s         28O3s         28O1pz        28O1py        28O1px        28O2pz        28O2py        28O2px        28O1d-2    
   44   28O1d-1       28O1d0        28O1d+1       28O1d+2       29O1s         29O2s         29O3s         29O1pz        29O1py        29O1px     
   45   29O2pz        29O2py        29O2px        29O1d-2       29O1d-1       29O1d0        29O1d+1       29O1d+2       30O1s         30O2s      
   46   30O3s         30O1pz        30O1py        30O1px        30O2pz        30O2py        30O2px        30O1d-2       30O1d-1       30O1d0     
   47   30O1d+1       30O1d+2       31O1s         31O2s         31O3s         31O1pz        31O1py        31O1px        31O2pz        31O2py     
   48   31O2px        31O1d-2       31O1d-1       31O1d0        31O1d+1       31O1d+2       32O1s         32O2s         32O3s         32O1pz     
   49   32O1py        32O1px        32O2pz        32O2py        32O2px        32O1d-2       32O1d-1       32O1d0        32O1d+1       32O1d+2    
   50   33O1s         33O2s         33O3s         33O1pz        33O1py        33O1px        33O2pz        33O2py        33O2px        33O1d-2    
   51   33O1d-1       33O1d0        33O1d+1       33O1d+2       34O1s         34O2s         34O3s         34O1pz        34O1py        34O1px     
   52   34O2pz        34O2py        34O2px        34O1d-2       34O1d-1       34O1d0        34O1d+1       34O1d+2       35O1s         35O2s      
   53   35O3s         35O1pz        35O1py        35O1px        35O2pz        35O2py        35O2px        35O1d-2       35O1d-1       35O1d0     
   54   35O1d+1       35O1d+2       36O1s         36O2s         36O3s         36O1pz        36O1py        36O1px        36O2pz        36O2py     
   55   36O2px        36O1d-2       36O1d-1       36O1d0        36O1d+1       36O1d+2       37O1s         37O2s         37O3s         37O1pz     
   56   37O1py        37O1px        37O2pz        37O2py        37O2px        37O1d-2       37O1d-1       37O1d0        37O1d+1       37O1d+2    
   57   38O1s         38O2s         38O3s         38O1pz        38O1py        38O1px        38O2pz        38O2py        38O2px        38O1d-2    
   58   38O1d-1       38O1d0        38O1d+1       38O1d+2       39O1s         39O2s         39O3s         39O1pz        39O1py        39O1px     
   59   39O2pz        39O2py        39O2px        39O1d-2       39O1d-1       39O1d0        39O1d+1       39O1d+2       40O1s         40O2s      
   60   40O3s         40O1pz        40O1py        40O1px        40O2pz        40O2py        40O2px        40O1d-2       40O1d-1       40O1d0     
   61   40O1d+1       40O1d+2       41Mg1s        41Mg2s        41Mg3s        41Mg4s        41Mg1pz       41Mg1py       41Mg1px       41Mg2pz    
   62   41Mg2py       41Mg2px       41Mg3pz       41Mg3py       41Mg3px       41Mg1d-2      41Mg1d-1      41Mg1d0       41Mg1d+1      41Mg1d+2   
   63   42Mg1s        42Mg2s        42Mg3s        42Mg4s        42Mg1pz       42Mg1py       42Mg1px       42Mg2pz       42Mg2py       42Mg2px    
   64   42Mg3pz       42Mg3py       42Mg3px       42Mg1d-2      42Mg1d-1      42Mg1d0       42Mg1d+1      42Mg1d+2      43Mg1s        43Mg2s     
   65   43Mg3s        43Mg4s        43Mg1pz       43Mg1py       43Mg1px       43Mg2pz       43Mg2py       43Mg2px       43Mg3pz       43Mg3py    
   66   43Mg3px       43Mg1d-2      43Mg1d-1      43Mg1d0       43Mg1d+1      43Mg1d+2      44Mg1s        44Mg2s        44Mg3s        44Mg4s     
   67   44Mg1pz       44Mg1py       44Mg1px       44Mg2pz       44Mg2py       44Mg2px       44Mg3pz       44Mg3py       44Mg3px       44Mg1d-2   
   68   44Mg1d-1      44Mg1d0       44Mg1d+1      44Mg1d+2      45O1s         45O2s         45O3s         45O1pz        45O1py        45O1px     
   69   45O2pz        45O2py        45O2px        45O1d-2       45O1d-1       45O1d0        45O1d+1       45O1d+2       46O1s         46O2s      
   70   46O3s         46O1pz        46O1py        46O1px        46O2pz        46O2py        46O2px        46O1d-2       46O1d-1       46O1d0     
   71   46O1d+1       46O1d+2       47O1s         47O2s         47O3s         47O1pz        47O1py        47O1px        47O2pz        47O2py     
   72   47O2px        47O1d-2       47O1d-1       47O1d0        47O1d+1       47O1d+2       48O1s         48O2s         48O3s         48O1pz     
   73   48O1py        48O1px        48O2pz        48O2py        48O2px        48O1d-2       48O1d-1       48O1d0        48O1d+1       48O1d+2    
   74   49O1s         49O2s         49O3s         49O1pz        49O1py        49O1px        49O2pz        49O2py        49O2px        49O1d-2    
   75   49O1d-1       49O1d0        49O1d+1       49O1d+2       50O1s         50O2s         50O3s         50O1pz        50O1py        50O1px     
   76   50O2pz        50O2py        50O2px        50O1d-2       50O1d-1       50O1d0        50O1d+1       50O1d+2       51O1s         51O2s      
   77   51O3s         51O1pz        51O1py        51O1px        51O2pz        51O2py        51O2px        51O1d-2       51O1d-1       51O1d0     
   78   51O1d+1       51O1d+2       52O1s         52O2s         52O3s         52O1pz        52O1py        52O1px        52O2pz        52O2py     
   79   52O2px        52O1d-2       52O1d-1       52O1d0        52O1d+1       52O1d+2       53O1s         53O2s         53O3s         53O1pz     
   80   53O1py        53O1px        53O2pz        53O2py        53O2px        53O1d-2       53O1d-1       53O1d0        53O1d+1       53O1d+2    
   81   54O1s         54O2s         54O3s         54O1pz        54O1py        54O1px        54O2pz        54O2py        54O2px        54O1d-2    
   82   54O1d-1       54O1d0        54O1d+1       54O1d+2       55O1s         55O2s         55O3s         55O1pz        55O1py        55O1px     
   83   55O2pz        55O2py        55O2px        55O1d-2       55O1d-1       55O1d0        55O1d+1       55O1d+2       56O1s         56O2s      
   84   56O3s         56O1pz        56O1py        56O1px        56O2pz        56O2py        56O2px        56O1d-2       56O1d-1       56O1d0     
   85   56O1d+1       56O1d+2       57O1s         57O2s         57O3s         57O1pz        57O1py        57O1px        57O2pz        57O2py     
   86   57O2px        57O1d-2       57O1d-1       57O1d0        57O1d+1       57O1d+2       58O1s         58O2s         58O3s         58O1pz     
   87   58O1py        58O1px        58O2pz        58O2py        58O2px        58O1d-2       58O1d-1       58O1d0        58O1d+1       58O1d+2    
   88   59O1s         59O2s         59O3s         59O1pz        59O1py        59O1px        59O2pz        59O2py        59O2px        59O1d-2    
   89   59O1d-1       59O1d0        59O1d+1       59O1d+2       60O1s         60O2s         60O3s         60O1pz        60O1py        60O1px     
   90   60O2pz        60O2py        60O2px        60O1d-2       60O1d-1       60O1d0        60O1d+1       60O1d+2    
 
 Maximum number of basis functions per shell:    9
 Total number of basis functions:    908
 
 
 Fitting basis set for the SCF calculation:
 
   1  C  def2-qzvpp-ri-jk [ 14s 10p 6d 2f 1g | 10s 8p 5d 1f 1g ]
   2  O  def2-qzvpp-ri-jk [ 14s 10p 6d 2f 1g | 10s 8p 4d 2f 1g ]
   3  Mg def2-qzvpp-ri-jk [ 16s 12p 9d 4f 1g | 13s 9p 7d 4f 1g ]
   4  O  def2-qzvpp-ri-jk [ 14s 10p 6d 2f 1g | 10s 8p 4d 2f 1g ]
   5  O  def2-qzvpp-ri-jk [ 14s 10p 6d 2f 1g | 10s 8p 4d 2f 1g ]
   6  O  def2-qzvpp-ri-jk [ 14s 10p 6d 2f 1g | 10s 8p 4d 2f 1g ]
   7  O  def2-qzvpp-ri-jk [ 14s 10p 6d 2f 1g | 10s 8p 4d 2f 1g ]
   8  O  def2-qzvpp-ri-jk [ 14s 10p 6d 2f 1g | 10s 8p 4d 2f 1g ]
   9  Mg def2-qzvpp-ri-jk [ 16s 12p 9d 4f 1g | 13s 9p 7d 4f 1g ]
  10  Mg def2-qzvpp-ri-jk [ 16s 12p 9d 4f 1g | 13s 9p 7d 4f 1g ]
  11  Mg def2-qzvpp-ri-jk [ 16s 12p 9d 4f 1g | 13s 9p 7d 4f 1g ]
  12  Mg def2-qzvpp-ri-jk [ 16s 12p 9d 4f 1g | 13s 9p 7d 4f 1g ]
  13  Mg def2-qzvpp-ri-jk [ 16s 12p 9d 4f 1g | 13s 9p 7d 4f 1g ]
  14  Mg def2-qzvpp-ri-jk [ 16s 12p 9d 4f 1g | 13s 9p 7d 4f 1g ]
  15  Mg def2-qzvpp-ri-jk [ 16s 12p 9d 4f 1g | 13s 9p 7d 4f 1g ]
  16  Mg def2-qzvpp-ri-jk [ 16s 12p 9d 4f 1g | 13s 9p 7d 4f 1g ]
  17  O  def2-qzvpp-ri-jk [ 14s 10p 6d 2f 1g | 10s 8p 4d 2f 1g ]
  18  O  def2-qzvpp-ri-jk [ 14s 10p 6d 2f 1g | 10s 8p 4d 2f 1g ]
  19  O  def2-qzvpp-ri-jk [ 14s 10p 6d 2f 1g | 10s 8p 4d 2f 1g ]
  20  O  def2-qzvpp-ri-jk [ 14s 10p 6d 2f 1g | 10s 8p 4d 2f 1g ]
  21  Mg def2-qzvpp-ri-jk [ 16s 12p 9d 4f 1g | 13s 9p 7d 4f 1g ]
  22  Mg def2-qzvpp-ri-jk [ 16s 12p 9d 4f 1g | 13s 9p 7d 4f 1g ]
  23  Mg def2-qzvpp-ri-jk [ 16s 12p 9d 4f 1g | 13s 9p 7d 4f 1g ]
  24  Mg def2-qzvpp-ri-jk [ 16s 12p 9d 4f 1g | 13s 9p 7d 4f 1g ]
  25  O  def2-qzvpp-ri-jk [ 14s 10p 6d 2f 1g | 10s 8p 4d 2f 1g ]
  26  O  def2-qzvpp-ri-jk [ 14s 10p 6d 2f 1g | 10s 8p 4d 2f 1g ]
  27  O  def2-qzvpp-ri-jk [ 14s 10p 6d 2f 1g | 10s 8p 4d 2f 1g ]
  28  O  def2-qzvpp-ri-jk [ 14s 10p 6d 2f 1g | 10s 8p 4d 2f 1g ]
  29  O  def2-qzvpp-ri-jk [ 14s 10p 6d 2f 1g | 10s 8p 4d 2f 1g ]
  30  O  def2-qzvpp-ri-jk [ 14s 10p 6d 2f 1g | 10s 8p 4d 2f 1g ]
  31  O  def2-qzvpp-ri-jk [ 14s 10p 6d 2f 1g | 10s 8p 4d 2f 1g ]
  32  O  def2-qzvpp-ri-jk [ 14s 10p 6d 2f 1g | 10s 8p 4d 2f 1g ]
  33  O  def2-qzvpp-ri-jk [ 14s 10p 6d 2f 1g | 10s 8p 4d 2f 1g ]
  34  O  def2-qzvpp-ri-jk [ 14s 10p 6d 2f 1g | 10s 8p 4d 2f 1g ]
  35  O  def2-qzvpp-ri-jk [ 14s 10p 6d 2f 1g | 10s 8p 4d 2f 1g ]
  36  O  def2-qzvpp-ri-jk [ 14s 10p 6d 2f 1g | 10s 8p 4d 2f 1g ]
  37  O  def2-qzvpp-ri-jk [ 14s 10p 6d 2f 1g | 10s 8p 4d 2f 1g ]
  38  O  def2-qzvpp-ri-jk [ 14s 10p 6d 2f 1g | 10s 8p 4d 2f 1g ]
  39  O  def2-qzvpp-ri-jk [ 14s 10p 6d 2f 1g | 10s 8p 4d 2f 1g ]
  40  O  def2-qzvpp-ri-jk [ 14s 10p 6d 2f 1g | 10s 8p 4d 2f 1g ]
  41  Mg def2-qzvpp-ri-jk [ 16s 12p 9d 4f 1g | 13s 9p 7d 4f 1g ]
  42  Mg def2-qzvpp-ri-jk [ 16s 12p 9d 4f 1g | 13s 9p 7d 4f 1g ]
  43  Mg def2-qzvpp-ri-jk [ 16s 12p 9d 4f 1g | 13s 9p 7d 4f 1g ]
  44  Mg def2-qzvpp-ri-jk [ 16s 12p 9d 4f 1g | 13s 9p 7d 4f 1g ]
  45  O  def2-qzvpp-ri-jk [ 14s 10p 6d 2f 1g | 10s 8p 4d 2f 1g ]
  46  O  def2-qzvpp-ri-jk [ 14s 10p 6d 2f 1g | 10s 8p 4d 2f 1g ]
  47  O  def2-qzvpp-ri-jk [ 14s 10p 6d 2f 1g | 10s 8p 4d 2f 1g ]
  48  O  def2-qzvpp-ri-jk [ 14s 10p 6d 2f 1g | 10s 8p 4d 2f 1g ]
  49  O  def2-qzvpp-ri-jk [ 14s 10p 6d 2f 1g | 10s 8p 4d 2f 1g ]
  50  O  def2-qzvpp-ri-jk [ 14s 10p 6d 2f 1g | 10s 8p 4d 2f 1g ]
  51  O  def2-qzvpp-ri-jk [ 14s 10p 6d 2f 1g | 10s 8p 4d 2f 1g ]
  52  O  def2-qzvpp-ri-jk [ 14s 10p 6d 2f 1g | 10s 8p 4d 2f 1g ]
  53  O  def2-qzvpp-ri-jk [ 14s 10p 6d 2f 1g | 10s 8p 4d 2f 1g ]
  54  O  def2-qzvpp-ri-jk [ 14s 10p 6d 2f 1g | 10s 8p 4d 2f 1g ]
  55  O  def2-qzvpp-ri-jk [ 14s 10p 6d 2f 1g | 10s 8p 4d 2f 1g ]
  56  O  def2-qzvpp-ri-jk [ 14s 10p 6d 2f 1g | 10s 8p 4d 2f 1g ]
  57  O  def2-qzvpp-ri-jk [ 14s 10p 6d 2f 1g | 10s 8p 4d 2f 1g ]
  58  O  def2-qzvpp-ri-jk [ 14s 10p 6d 2f 1g | 10s 8p 4d 2f 1g ]
  59  O  def2-qzvpp-ri-jk [ 14s 10p 6d 2f 1g | 10s 8p 4d 2f 1g ]
  60  O  def2-qzvpp-ri-jk [ 14s 10p 6d 2f 1g | 10s 8p 4d 2f 1g ]
 
 Basis functions:
            1             2             3             4             5             6             7             8             9            10
    0    1C1s          1C2s          1C3s          1C4s          1C5s          1C6s          1C7s          1C8s          1C9s          1C10s     
    1    1C1pz         1C1py         1C1px         1C2pz         1C2py         1C2px         1C3pz         1C3py         1C3px         1C4pz     
    2    1C4py         1C4px         1C5pz         1C5py         1C5px         1C6pz         1C6py         1C6px         1C7pz         1C7py     
    3    1C7px         1C8pz         1C8py         1C8px         1C1d-2        1C1d-1        1C1d0         1C1d+1        1C1d+2        1C2d-2    
    4    1C2d-1        1C2d0         1C2d+1        1C2d+2        1C3d-2        1C3d-1        1C3d0         1C3d+1        1C3d+2        1C4d-2    
    5    1C4d-1        1C4d0         1C4d+1        1C4d+2        1C5d-2        1C5d-1        1C5d0         1C5d+1        1C5d+2        1C1f-3    
    6    1C1f-2        1C1f-1        1C1f0         1C1f+1        1C1f+2        1C1f+3        1C1g-4        1C1g-3        1C1g-2        1C1g-1    
    7    1C1g0         1C1g+1        1C1g+2        1C1g+3        1C1g+4        2O1s          2O2s          2O3s          2O4s          2O5s      
    8    2O6s          2O7s          2O8s          2O9s          2O10s         2O1pz         2O1py         2O1px         2O2pz         2O2py     
    9    2O2px         2O3pz         2O3py         2O3px         2O4pz         2O4py         2O4px         2O5pz         2O5py         2O5px     
   10    2O6pz         2O6py         2O6px         2O7pz         2O7py         2O7px         2O8pz         2O8py         2O8px         2O1d-2    
   11    2O1d-1        2O1d0         2O1d+1        2O1d+2        2O2d-2        2O2d-1        2O2d0         2O2d+1        2O2d+2        2O3d-2    
   12    2O3d-1        2O3d0         2O3d+1        2O3d+2        2O4d-2        2O4d-1        2O4d0         2O4d+1        2O4d+2        2O1f-3    
   13    2O1f-2        2O1f-1        2O1f0         2O1f+1        2O1f+2        2O1f+3        2O2f-3        2O2f-2        2O2f-1        2O2f0     
   14    2O2f+1        2O2f+2        2O2f+3        2O1g-4        2O1g-3        2O1g-2        2O1g-1        2O1g0         2O1g+1        2O1g+2    
   15    2O1g+3        2O1g+4        3Mg1s         3Mg2s         3Mg3s         3Mg4s         3Mg5s         3Mg6s         3Mg7s         3Mg8s     
   16    3Mg9s         3Mg10s        3Mg11s        3Mg12s        3Mg13s        3Mg1pz        3Mg1py        3Mg1px        3Mg2pz        3Mg2py    
   17    3Mg2px        3Mg3pz        3Mg3py        3Mg3px        3Mg4pz        3Mg4py        3Mg4px        3Mg5pz        3Mg5py        3Mg5px    
   18    3Mg6pz        3Mg6py        3Mg6px        3Mg7pz        3Mg7py        3Mg7px        3Mg8pz        3Mg8py        3Mg8px        3Mg9pz    
   19    3Mg9py        3Mg9px        3Mg1d-2       3Mg1d-1       3Mg1d0        3Mg1d+1       3Mg1d+2       3Mg2d-2       3Mg2d-1       3Mg2d0    
   20    3Mg2d+1       3Mg2d+2       3Mg3d-2       3Mg3d-1       3Mg3d0        3Mg3d+1       3Mg3d+2       3Mg4d-2       3Mg4d-1       3Mg4d0    
   21    3Mg4d+1       3Mg4d+2       3Mg5d-2       3Mg5d-1       3Mg5d0        3Mg5d+1       3Mg5d+2       3Mg6d-2       3Mg6d-1       3Mg6d0    
   22    3Mg6d+1       3Mg6d+2       3Mg7d-2       3Mg7d-1       3Mg7d0        3Mg7d+1       3Mg7d+2       3Mg1f-3       3Mg1f-2       3Mg1f-1   
   23    3Mg1f0        3Mg1f+1       3Mg1f+2       3Mg1f+3       3Mg2f-3       3Mg2f-2       3Mg2f-1       3Mg2f0        3Mg2f+1       3Mg2f+2   
   24    3Mg2f+3       3Mg3f-3       3Mg3f-2       3Mg3f-1       3Mg3f0        3Mg3f+1       3Mg3f+2       3Mg3f+3       3Mg4f-3       3Mg4f-2   
   25    3Mg4f-1       3Mg4f0        3Mg4f+1       3Mg4f+2       3Mg4f+3       3Mg1g-4       3Mg1g-3       3Mg1g-2       3Mg1g-1       3Mg1g0    
   26    3Mg1g+1       3Mg1g+2       3Mg1g+3       3Mg1g+4       4O1s          4O2s          4O3s          4O4s          4O5s          4O6s      
   27    4O7s          4O8s          4O9s          4O10s         4O1pz         4O1py         4O1px         4O2pz         4O2py         4O2px     
   28    4O3pz         4O3py         4O3px         4O4pz         4O4py         4O4px         4O5pz         4O5py         4O5px         4O6pz     
   29    4O6py         4O6px         4O7pz         4O7py         4O7px         4O8pz         4O8py         4O8px         4O1d-2        4O1d-1    
   30    4O1d0         4O1d+1        4O1d+2        4O2d-2        4O2d-1        4O2d0         4O2d+1        4O2d+2        4O3d-2        4O3d-1    
   31    4O3d0         4O3d+1        4O3d+2        4O4d-2        4O4d-1        4O4d0         4O4d+1        4O4d+2        4O1f-3        4O1f-2    
   32    4O1f-1        4O1f0         4O1f+1        4O1f+2        4O1f+3        4O2f-3        4O2f-2        4O2f-1        4O2f0         4O2f+1    
   33    4O2f+2        4O2f+3        4O1g-4        4O1g-3        4O1g-2        4O1g-1        4O1g0         4O1g+1        4O1g+2        4O1g+3    
   34    4O1g+4        5O1s          5O2s          5O3s          5O4s          5O5s          5O6s          5O7s          5O8s          5O9s      
   35    5O10s         5O1pz         5O1py         5O1px         5O2pz         5O2py         5O2px         5O3pz         5O3py         5O3px     
   36    5O4pz         5O4py         5O4px         5O5pz         5O5py         5O5px         5O6pz         5O6py         5O6px         5O7pz     
   37    5O7py         5O7px         5O8pz         5O8py         5O8px         5O1d-2        5O1d-1        5O1d0         5O1d+1        5O1d+2    
   38    5O2d-2        5O2d-1        5O2d0         5O2d+1        5O2d+2        5O3d-2        5O3d-1        5O3d0         5O3d+1        5O3d+2    
   39    5O4d-2        5O4d-1        5O4d0         5O4d+1        5O4d+2        5O1f-3        5O1f-2        5O1f-1        5O1f0         5O1f+1    
   40    5O1f+2        5O1f+3        5O2f-3        5O2f-2        5O2f-1        5O2f0         5O2f+1        5O2f+2        5O2f+3        5O1g-4    
   41    5O1g-3        5O1g-2        5O1g-1        5O1g0         5O1g+1        5O1g+2        5O1g+3        5O1g+4        6O1s          6O2s      
   42    6O3s          6O4s          6O5s          6O6s          6O7s          6O8s          6O9s          6O10s         6O1pz         6O1py     
   43    6O1px         6O2pz         6O2py         6O2px         6O3pz         6O3py         6O3px         6O4pz         6O4py         6O4px     
   44    6O5pz         6O5py         6O5px         6O6pz         6O6py         6O6px         6O7pz         6O7py         6O7px         6O8pz     
   45    6O8py         6O8px         6O1d-2        6O1d-1        6O1d0         6O1d+1        6O1d+2        6O2d-2        6O2d-1        6O2d0     
   46    6O2d+1        6O2d+2        6O3d-2        6O3d-1        6O3d0         6O3d+1        6O3d+2        6O4d-2        6O4d-1        6O4d0     
   47    6O4d+1        6O4d+2        6O1f-3        6O1f-2        6O1f-1        6O1f0         6O1f+1        6O1f+2        6O1f+3        6O2f-3    
   48    6O2f-2        6O2f-1        6O2f0         6O2f+1        6O2f+2        6O2f+3        6O1g-4        6O1g-3        6O1g-2        6O1g-1    
   49    6O1g0         6O1g+1        6O1g+2        6O1g+3        6O1g+4        7O1s          7O2s          7O3s          7O4s          7O5s      
   50    7O6s          7O7s          7O8s          7O9s          7O10s         7O1pz         7O1py         7O1px         7O2pz         7O2py     
   51    7O2px         7O3pz         7O3py         7O3px         7O4pz         7O4py         7O4px         7O5pz         7O5py         7O5px     
   52    7O6pz         7O6py         7O6px         7O7pz         7O7py         7O7px         7O8pz         7O8py         7O8px         7O1d-2    
   53    7O1d-1        7O1d0         7O1d+1        7O1d+2        7O2d-2        7O2d-1        7O2d0         7O2d+1        7O2d+2        7O3d-2    
   54    7O3d-1        7O3d0         7O3d+1        7O3d+2        7O4d-2        7O4d-1        7O4d0         7O4d+1        7O4d+2        7O1f-3    
   55    7O1f-2        7O1f-1        7O1f0         7O1f+1        7O1f+2        7O1f+3        7O2f-3        7O2f-2        7O2f-1        7O2f0     
   56    7O2f+1        7O2f+2        7O2f+3        7O1g-4        7O1g-3        7O1g-2        7O1g-1        7O1g0         7O1g+1        7O1g+2    
   57    7O1g+3        7O1g+4        8O1s          8O2s          8O3s          8O4s          8O5s          8O6s          8O7s          8O8s      
   58    8O9s          8O10s         8O1pz         8O1py         8O1px         8O2pz         8O2py         8O2px         8O3pz         8O3py     
   59    8O3px         8O4pz         8O4py         8O4px         8O5pz         8O5py         8O5px         8O6pz         8O6py         8O6px     
   60    8O7pz         8O7py         8O7px         8O8pz         8O8py         8O8px         8O1d-2        8O1d-1        8O1d0         8O1d+1    
   61    8O1d+2        8O2d-2        8O2d-1        8O2d0         8O2d+1        8O2d+2        8O3d-2        8O3d-1        8O3d0         8O3d+1    
   62    8O3d+2        8O4d-2        8O4d-1        8O4d0         8O4d+1        8O4d+2        8O1f-3        8O1f-2        8O1f-1        8O1f0     
   63    8O1f+1        8O1f+2        8O1f+3        8O2f-3        8O2f-2        8O2f-1        8O2f0         8O2f+1        8O2f+2        8O2f+3    
   64    8O1g-4        8O1g-3        8O1g-2        8O1g-1        8O1g0         8O1g+1        8O1g+2        8O1g+3        8O1g+4        9Mg1s     
   65    9Mg2s         9Mg3s         9Mg4s         9Mg5s         9Mg6s         9Mg7s         9Mg8s         9Mg9s         9Mg10s        9Mg11s    
   66    9Mg12s        9Mg13s        9Mg1pz        9Mg1py        9Mg1px        9Mg2pz        9Mg2py        9Mg2px        9Mg3pz        9Mg3py    
   67    9Mg3px        9Mg4pz        9Mg4py        9Mg4px        9Mg5pz        9Mg5py        9Mg5px        9Mg6pz        9Mg6py        9Mg6px    
   68    9Mg7pz        9Mg7py        9Mg7px        9Mg8pz        9Mg8py        9Mg8px        9Mg9pz        9Mg9py        9Mg9px        9Mg1d-2   
   69    9Mg1d-1       9Mg1d0        9Mg1d+1       9Mg1d+2       9Mg2d-2       9Mg2d-1       9Mg2d0        9Mg2d+1       9Mg2d+2       9Mg3d-2   
   70    9Mg3d-1       9Mg3d0        9Mg3d+1       9Mg3d+2       9Mg4d-2       9Mg4d-1       9Mg4d0        9Mg4d+1       9Mg4d+2       9Mg5d-2   
   71    9Mg5d-1       9Mg5d0        9Mg5d+1       9Mg5d+2       9Mg6d-2       9Mg6d-1       9Mg6d0        9Mg6d+1       9Mg6d+2       9Mg7d-2   
   72    9Mg7d-1       9Mg7d0        9Mg7d+1       9Mg7d+2       9Mg1f-3       9Mg1f-2       9Mg1f-1       9Mg1f0        9Mg1f+1       9Mg1f+2   
   73    9Mg1f+3       9Mg2f-3       9Mg2f-2       9Mg2f-1       9Mg2f0        9Mg2f+1       9Mg2f+2       9Mg2f+3       9Mg3f-3       9Mg3f-2   
   74    9Mg3f-1       9Mg3f0        9Mg3f+1       9Mg3f+2       9Mg3f+3       9Mg4f-3       9Mg4f-2       9Mg4f-1       9Mg4f0        9Mg4f+1   
   75    9Mg4f+2       9Mg4f+3       9Mg1g-4       9Mg1g-3       9Mg1g-2       9Mg1g-1       9Mg1g0        9Mg1g+1       9Mg1g+2       9Mg1g+3   
   76    9Mg1g+4      10Mg1s        10Mg2s        10Mg3s        10Mg4s        10Mg5s        10Mg6s        10Mg7s        10Mg8s        10Mg9s     
   77   10Mg10s       10Mg11s       10Mg12s       10Mg13s       10Mg1pz       10Mg1py       10Mg1px       10Mg2pz       10Mg2py       10Mg2px    
   78   10Mg3pz       10Mg3py       10Mg3px       10Mg4pz       10Mg4py       10Mg4px       10Mg5pz       10Mg5py       10Mg5px       10Mg6pz    
   79   10Mg6py       10Mg6px       10Mg7pz       10Mg7py       10Mg7px       10Mg8pz       10Mg8py       10Mg8px       10Mg9pz       10Mg9py    
   80   10Mg9px       10Mg1d-2      10Mg1d-1      10Mg1d0       10Mg1d+1      10Mg1d+2      10Mg2d-2      10Mg2d-1      10Mg2d0       10Mg2d+1   
   81   10Mg2d+2      10Mg3d-2      10Mg3d-1      10Mg3d0       10Mg3d+1      10Mg3d+2      10Mg4d-2      10Mg4d-1      10Mg4d0       10Mg4d+1   
   82   10Mg4d+2      10Mg5d-2      10Mg5d-1      10Mg5d0       10Mg5d+1      10Mg5d+2      10Mg6d-2      10Mg6d-1      10Mg6d0       10Mg6d+1   
   83   10Mg6d+2      10Mg7d-2      10Mg7d-1      10Mg7d0       10Mg7d+1      10Mg7d+2      10Mg1f-3      10Mg1f-2      10Mg1f-1      10Mg1f0    
   84   10Mg1f+1      10Mg1f+2      10Mg1f+3      10Mg2f-3      10Mg2f-2      10Mg2f-1      10Mg2f0       10Mg2f+1      10Mg2f+2      10Mg2f+3   
   85   10Mg3f-3      10Mg3f-2      10Mg3f-1      10Mg3f0       10Mg3f+1      10Mg3f+2      10Mg3f+3      10Mg4f-3      10Mg4f-2      10Mg4f-1   
   86   10Mg4f0       10Mg4f+1      10Mg4f+2      10Mg4f+3      10Mg1g-4      10Mg1g-3      10Mg1g-2      10Mg1g-1      10Mg1g0       10Mg1g+1   
   87   10Mg1g+2      10Mg1g+3      10Mg1g+4      11Mg1s        11Mg2s        11Mg3s        11Mg4s        11Mg5s        11Mg6s        11Mg7s     
   88   11Mg8s        11Mg9s        11Mg10s       11Mg11s       11Mg12s       11Mg13s       11Mg1pz       11Mg1py       11Mg1px       11Mg2pz    
   89   11Mg2py       11Mg2px       11Mg3pz       11Mg3py       11Mg3px       11Mg4pz       11Mg4py       11Mg4px       11Mg5pz       11Mg5py    
   90   11Mg5px       11Mg6pz       11Mg6py       11Mg6px       11Mg7pz       11Mg7py       11Mg7px       11Mg8pz       11Mg8py       11Mg8px    
   91   11Mg9pz       11Mg9py       11Mg9px       11Mg1d-2      11Mg1d-1      11Mg1d0       11Mg1d+1      11Mg1d+2      11Mg2d-2      11Mg2d-1   
   92   11Mg2d0       11Mg2d+1      11Mg2d+2      11Mg3d-2      11Mg3d-1      11Mg3d0       11Mg3d+1      11Mg3d+2      11Mg4d-2      11Mg4d-1   
   93   11Mg4d0       11Mg4d+1      11Mg4d+2      11Mg5d-2      11Mg5d-1      11Mg5d0       11Mg5d+1      11Mg5d+2      11Mg6d-2      11Mg6d-1   
   94   11Mg6d0       11Mg6d+1      11Mg6d+2      11Mg7d-2      11Mg7d-1      11Mg7d0       11Mg7d+1      11Mg7d+2      11Mg1f-3      11Mg1f-2   
   95   11Mg1f-1      11Mg1f0       11Mg1f+1      11Mg1f+2      11Mg1f+3      11Mg2f-3      11Mg2f-2      11Mg2f-1      11Mg2f0       11Mg2f+1   
   96   11Mg2f+2      11Mg2f+3      11Mg3f-3      11Mg3f-2      11Mg3f-1      11Mg3f0       11Mg3f+1      11Mg3f+2      11Mg3f+3      11Mg4f-3   
   97   11Mg4f-2      11Mg4f-1      11Mg4f0       11Mg4f+1      11Mg4f+2      11Mg4f+3      11Mg1g-4      11Mg1g-3      11Mg1g-2      11Mg1g-1   
   98   11Mg1g0       11Mg1g+1      11Mg1g+2      11Mg1g+3      11Mg1g+4      12Mg1s        12Mg2s        12Mg3s        12Mg4s        12Mg5s     
   99   12Mg6s        12Mg7s        12Mg8s        12Mg9s        12Mg10s       12Mg11s       12Mg12s       12Mg13s       12Mg1pz       12Mg1py    
  100   12Mg1px       12Mg2pz       12Mg2py       12Mg2px       12Mg3pz       12Mg3py       12Mg3px       12Mg4pz       12Mg4py       12Mg4px    
  101   12Mg5pz       12Mg5py       12Mg5px       12Mg6pz       12Mg6py       12Mg6px       12Mg7pz       12Mg7py       12Mg7px       12Mg8pz    
  102   12Mg8py       12Mg8px       12Mg9pz       12Mg9py       12Mg9px       12Mg1d-2      12Mg1d-1      12Mg1d0       12Mg1d+1      12Mg1d+2   
  103   12Mg2d-2      12Mg2d-1      12Mg2d0       12Mg2d+1      12Mg2d+2      12Mg3d-2      12Mg3d-1      12Mg3d0       12Mg3d+1      12Mg3d+2   
  104   12Mg4d-2      12Mg4d-1      12Mg4d0       12Mg4d+1      12Mg4d+2      12Mg5d-2      12Mg5d-1      12Mg5d0       12Mg5d+1      12Mg5d+2   
  105   12Mg6d-2      12Mg6d-1      12Mg6d0       12Mg6d+1      12Mg6d+2      12Mg7d-2      12Mg7d-1      12Mg7d0       12Mg7d+1      12Mg7d+2   
  106   12Mg1f-3      12Mg1f-2      12Mg1f-1      12Mg1f0       12Mg1f+1      12Mg1f+2      12Mg1f+3      12Mg2f-3      12Mg2f-2      12Mg2f-1   
  107   12Mg2f0       12Mg2f+1      12Mg2f+2      12Mg2f+3      12Mg3f-3      12Mg3f-2      12Mg3f-1      12Mg3f0       12Mg3f+1      12Mg3f+2   
  108   12Mg3f+3      12Mg4f-3      12Mg4f-2      12Mg4f-1      12Mg4f0       12Mg4f+1      12Mg4f+2      12Mg4f+3      12Mg1g-4      12Mg1g-3   
  109   12Mg1g-2      12Mg1g-1      12Mg1g0       12Mg1g+1      12Mg1g+2      12Mg1g+3      12Mg1g+4      13Mg1s        13Mg2s        13Mg3s     
  110   13Mg4s        13Mg5s        13Mg6s        13Mg7s        13Mg8s        13Mg9s        13Mg10s       13Mg11s       13Mg12s       13Mg13s    
  111   13Mg1pz       13Mg1py       13Mg1px       13Mg2pz       13Mg2py       13Mg2px       13Mg3pz       13Mg3py       13Mg3px       13Mg4pz    
  112   13Mg4py       13Mg4px       13Mg5pz       13Mg5py       13Mg5px       13Mg6pz       13Mg6py       13Mg6px       13Mg7pz       13Mg7py    
  113   13Mg7px       13Mg8pz       13Mg8py       13Mg8px       13Mg9pz       13Mg9py       13Mg9px       13Mg1d-2      13Mg1d-1      13Mg1d0    
  114   13Mg1d+1      13Mg1d+2      13Mg2d-2      13Mg2d-1      13Mg2d0       13Mg2d+1      13Mg2d+2      13Mg3d-2      13Mg3d-1      13Mg3d0    
  115   13Mg3d+1      13Mg3d+2      13Mg4d-2      13Mg4d-1      13Mg4d0       13Mg4d+1      13Mg4d+2      13Mg5d-2      13Mg5d-1      13Mg5d0    
  116   13Mg5d+1      13Mg5d+2      13Mg6d-2      13Mg6d-1      13Mg6d0       13Mg6d+1      13Mg6d+2      13Mg7d-2      13Mg7d-1      13Mg7d0    
  117   13Mg7d+1      13Mg7d+2      13Mg1f-3      13Mg1f-2      13Mg1f-1      13Mg1f0       13Mg1f+1      13Mg1f+2      13Mg1f+3      13Mg2f-3   
  118   13Mg2f-2      13Mg2f-1      13Mg2f0       13Mg2f+1      13Mg2f+2      13Mg2f+3      13Mg3f-3      13Mg3f-2      13Mg3f-1      13Mg3f0    
  119   13Mg3f+1      13Mg3f+2      13Mg3f+3      13Mg4f-3      13Mg4f-2      13Mg4f-1      13Mg4f0       13Mg4f+1      13Mg4f+2      13Mg4f+3   
  120   13Mg1g-4      13Mg1g-3      13Mg1g-2      13Mg1g-1      13Mg1g0       13Mg1g+1      13Mg1g+2      13Mg1g+3      13Mg1g+4      14Mg1s     
  121   14Mg2s        14Mg3s        14Mg4s        14Mg5s        14Mg6s        14Mg7s        14Mg8s        14Mg9s        14Mg10s       14Mg11s    
  122   14Mg12s       14Mg13s       14Mg1pz       14Mg1py       14Mg1px       14Mg2pz       14Mg2py       14Mg2px       14Mg3pz       14Mg3py    
  123   14Mg3px       14Mg4pz       14Mg4py       14Mg4px       14Mg5pz       14Mg5py       14Mg5px       14Mg6pz       14Mg6py       14Mg6px    
  124   14Mg7pz       14Mg7py       14Mg7px       14Mg8pz       14Mg8py       14Mg8px       14Mg9pz       14Mg9py       14Mg9px       14Mg1d-2   
  125   14Mg1d-1      14Mg1d0       14Mg1d+1      14Mg1d+2      14Mg2d-2      14Mg2d-1      14Mg2d0       14Mg2d+1      14Mg2d+2      14Mg3d-2   
  126   14Mg3d-1      14Mg3d0       14Mg3d+1      14Mg3d+2      14Mg4d-2      14Mg4d-1      14Mg4d0       14Mg4d+1      14Mg4d+2      14Mg5d-2   
  127   14Mg5d-1      14Mg5d0       14Mg5d+1      14Mg5d+2      14Mg6d-2      14Mg6d-1      14Mg6d0       14Mg6d+1      14Mg6d+2      14Mg7d-2   
  128   14Mg7d-1      14Mg7d0       14Mg7d+1      14Mg7d+2      14Mg1f-3      14Mg1f-2      14Mg1f-1      14Mg1f0       14Mg1f+1      14Mg1f+2   
  129   14Mg1f+3      14Mg2f-3      14Mg2f-2      14Mg2f-1      14Mg2f0       14Mg2f+1      14Mg2f+2      14Mg2f+3      14Mg3f-3      14Mg3f-2   
  130   14Mg3f-1      14Mg3f0       14Mg3f+1      14Mg3f+2      14Mg3f+3      14Mg4f-3      14Mg4f-2      14Mg4f-1      14Mg4f0       14Mg4f+1   
  131   14Mg4f+2      14Mg4f+3      14Mg1g-4      14Mg1g-3      14Mg1g-2      14Mg1g-1      14Mg1g0       14Mg1g+1      14Mg1g+2      14Mg1g+3   
  132   14Mg1g+4      15Mg1s        15Mg2s        15Mg3s        15Mg4s        15Mg5s        15Mg6s        15Mg7s        15Mg8s        15Mg9s     
  133   15Mg10s       15Mg11s       15Mg12s       15Mg13s       15Mg1pz       15Mg1py       15Mg1px       15Mg2pz       15Mg2py       15Mg2px    
  134   15Mg3pz       15Mg3py       15Mg3px       15Mg4pz       15Mg4py       15Mg4px       15Mg5pz       15Mg5py       15Mg5px       15Mg6pz    
  135   15Mg6py       15Mg6px       15Mg7pz       15Mg7py       15Mg7px       15Mg8pz       15Mg8py       15Mg8px       15Mg9pz       15Mg9py    
  136   15Mg9px       15Mg1d-2      15Mg1d-1      15Mg1d0       15Mg1d+1      15Mg1d+2      15Mg2d-2      15Mg2d-1      15Mg2d0       15Mg2d+1   
  137   15Mg2d+2      15Mg3d-2      15Mg3d-1      15Mg3d0       15Mg3d+1      15Mg3d+2      15Mg4d-2      15Mg4d-1      15Mg4d0       15Mg4d+1   
  138   15Mg4d+2      15Mg5d-2      15Mg5d-1      15Mg5d0       15Mg5d+1      15Mg5d+2      15Mg6d-2      15Mg6d-1      15Mg6d0       15Mg6d+1   
  139   15Mg6d+2      15Mg7d-2      15Mg7d-1      15Mg7d0       15Mg7d+1      15Mg7d+2      15Mg1f-3      15Mg1f-2      15Mg1f-1      15Mg1f0    
  140   15Mg1f+1      15Mg1f+2      15Mg1f+3      15Mg2f-3      15Mg2f-2      15Mg2f-1      15Mg2f0       15Mg2f+1      15Mg2f+2      15Mg2f+3   
  141   15Mg3f-3      15Mg3f-2      15Mg3f-1      15Mg3f0       15Mg3f+1      15Mg3f+2      15Mg3f+3      15Mg4f-3      15Mg4f-2      15Mg4f-1   
  142   15Mg4f0       15Mg4f+1      15Mg4f+2      15Mg4f+3      15Mg1g-4      15Mg1g-3      15Mg1g-2      15Mg1g-1      15Mg1g0       15Mg1g+1   
  143   15Mg1g+2      15Mg1g+3      15Mg1g+4      16Mg1s        16Mg2s        16Mg3s        16Mg4s        16Mg5s        16Mg6s        16Mg7s     
  144   16Mg8s        16Mg9s        16Mg10s       16Mg11s       16Mg12s       16Mg13s       16Mg1pz       16Mg1py       16Mg1px       16Mg2pz    
  145   16Mg2py       16Mg2px       16Mg3pz       16Mg3py       16Mg3px       16Mg4pz       16Mg4py       16Mg4px       16Mg5pz       16Mg5py    
  146   16Mg5px       16Mg6pz       16Mg6py       16Mg6px       16Mg7pz       16Mg7py       16Mg7px       16Mg8pz       16Mg8py       16Mg8px    
  147   16Mg9pz       16Mg9py       16Mg9px       16Mg1d-2      16Mg1d-1      16Mg1d0       16Mg1d+1      16Mg1d+2      16Mg2d-2      16Mg2d-1   
  148   16Mg2d0       16Mg2d+1      16Mg2d+2      16Mg3d-2      16Mg3d-1      16Mg3d0       16Mg3d+1      16Mg3d+2      16Mg4d-2      16Mg4d-1   
  149   16Mg4d0       16Mg4d+1      16Mg4d+2      16Mg5d-2      16Mg5d-1      16Mg5d0       16Mg5d+1      16Mg5d+2      16Mg6d-2      16Mg6d-1   
  150   16Mg6d0       16Mg6d+1      16Mg6d+2      16Mg7d-2      16Mg7d-1      16Mg7d0       16Mg7d+1      16Mg7d+2      16Mg1f-3      16Mg1f-2   
  151   16Mg1f-1      16Mg1f0       16Mg1f+1      16Mg1f+2      16Mg1f+3      16Mg2f-3      16Mg2f-2      16Mg2f-1      16Mg2f0       16Mg2f+1   
  152   16Mg2f+2      16Mg2f+3      16Mg3f-3      16Mg3f-2      16Mg3f-1      16Mg3f0       16Mg3f+1      16Mg3f+2      16Mg3f+3      16Mg4f-3   
  153   16Mg4f-2      16Mg4f-1      16Mg4f0       16Mg4f+1      16Mg4f+2      16Mg4f+3      16Mg1g-4      16Mg1g-3      16Mg1g-2      16Mg1g-1   
  154   16Mg1g0       16Mg1g+1      16Mg1g+2      16Mg1g+3      16Mg1g+4      17O1s         17O2s         17O3s         17O4s         17O5s      
  155   17O6s         17O7s         17O8s         17O9s         17O10s        17O1pz        17O1py        17O1px        17O2pz        17O2py     
  156   17O2px        17O3pz        17O3py        17O3px        17O4pz        17O4py        17O4px        17O5pz        17O5py        17O5px     
  157   17O6pz        17O6py        17O6px        17O7pz        17O7py        17O7px        17O8pz        17O8py        17O8px        17O1d-2    
  158   17O1d-1       17O1d0        17O1d+1       17O1d+2       17O2d-2       17O2d-1       17O2d0        17O2d+1       17O2d+2       17O3d-2    
  159   17O3d-1       17O3d0        17O3d+1       17O3d+2       17O4d-2       17O4d-1       17O4d0        17O4d+1       17O4d+2       17O1f-3    
  160   17O1f-2       17O1f-1       17O1f0        17O1f+1       17O1f+2       17O1f+3       17O2f-3       17O2f-2       17O2f-1       17O2f0     
  161   17O2f+1       17O2f+2       17O2f+3       17O1g-4       17O1g-3       17O1g-2       17O1g-1       17O1g0        17O1g+1       17O1g+2    
  162   17O1g+3       17O1g+4       18O1s         18O2s         18O3s         18O4s         18O5s         18O6s         18O7s         18O8s      
  163   18O9s         18O10s        18O1pz        18O1py        18O1px        18O2pz        18O2py        18O2px        18O3pz        18O3py     
  164   18O3px        18O4pz        18O4py        18O4px        18O5pz        18O5py        18O5px        18O6pz        18O6py        18O6px     
  165   18O7pz        18O7py        18O7px        18O8pz        18O8py        18O8px        18O1d-2       18O1d-1       18O1d0        18O1d+1    
  166   18O1d+2       18O2d-2       18O2d-1       18O2d0        18O2d+1       18O2d+2       18O3d-2       18O3d-1       18O3d0        18O3d+1    
  167   18O3d+2       18O4d-2       18O4d-1       18O4d0        18O4d+1       18O4d+2       18O1f-3       18O1f-2       18O1f-1       18O1f0     
  168   18O1f+1       18O1f+2       18O1f+3       18O2f-3       18O2f-2       18O2f-1       18O2f0        18O2f+1       18O2f+2       18O2f+3    
  169   18O1g-4       18O1g-3       18O1g-2       18O1g-1       18O1g0        18O1g+1       18O1g+2       18O1g+3       18O1g+4       19O1s      
  170   19O2s         19O3s         19O4s         19O5s         19O6s         19O7s         19O8s         19O9s         19O10s        19O1pz     
  171   19O1py        19O1px        19O2pz        19O2py        19O2px        19O3pz        19O3py        19O3px        19O4pz        19O4py     
  172   19O4px        19O5pz        19O5py        19O5px        19O6pz        19O6py        19O6px        19O7pz        19O7py        19O7px     
  173   19O8pz        19O8py        19O8px        19O1d-2       19O1d-1       19O1d0        19O1d+1       19O1d+2       19O2d-2       19O2d-1    
  174   19O2d0        19O2d+1       19O2d+2       19O3d-2       19O3d-1       19O3d0        19O3d+1       19O3d+2       19O4d-2       19O4d-1    
  175   19O4d0        19O4d+1       19O4d+2       19O1f-3       19O1f-2       19O1f-1       19O1f0        19O1f+1       19O1f+2       19O1f+3    
  176   19O2f-3       19O2f-2       19O2f-1       19O2f0        19O2f+1       19O2f+2       19O2f+3       19O1g-4       19O1g-3       19O1g-2    
  177   19O1g-1       19O1g0        19O1g+1       19O1g+2       19O1g+3       19O1g+4       20O1s         20O2s         20O3s         20O4s      
  178   20O5s         20O6s         20O7s         20O8s         20O9s         20O10s        20O1pz        20O1py        20O1px        20O2pz     
  179   20O2py        20O2px        20O3pz        20O3py        20O3px        20O4pz        20O4py        20O4px        20O5pz        20O5py     
  180   20O5px        20O6pz        20O6py        20O6px        20O7pz        20O7py        20O7px        20O8pz        20O8py        20O8px     
  181   20O1d-2       20O1d-1       20O1d0        20O1d+1       20O1d+2       20O2d-2       20O2d-1       20O2d0        20O2d+1       20O2d+2    
  182   20O3d-2       20O3d-1       20O3d0        20O3d+1       20O3d+2       20O4d-2       20O4d-1       20O4d0        20O4d+1       20O4d+2    
  183   20O1f-3       20O1f-2       20O1f-1       20O1f0        20O1f+1       20O1f+2       20O1f+3       20O2f-3       20O2f-2       20O2f-1    
  184   20O2f0        20O2f+1       20O2f+2       20O2f+3       20O1g-4       20O1g-3       20O1g-2       20O1g-1       20O1g0        20O1g+1    
  185   20O1g+2       20O1g+3       20O1g+4       21Mg1s        21Mg2s        21Mg3s        21Mg4s        21Mg5s        21Mg6s        21Mg7s     
  186   21Mg8s        21Mg9s        21Mg10s       21Mg11s       21Mg12s       21Mg13s       21Mg1pz       21Mg1py       21Mg1px       21Mg2pz    
  187   21Mg2py       21Mg2px       21Mg3pz       21Mg3py       21Mg3px       21Mg4pz       21Mg4py       21Mg4px       21Mg5pz       21Mg5py    
  188   21Mg5px       21Mg6pz       21Mg6py       21Mg6px       21Mg7pz       21Mg7py       21Mg7px       21Mg8pz       21Mg8py       21Mg8px    
  189   21Mg9pz       21Mg9py       21Mg9px       21Mg1d-2      21Mg1d-1      21Mg1d0       21Mg1d+1      21Mg1d+2      21Mg2d-2      21Mg2d-1   
  190   21Mg2d0       21Mg2d+1      21Mg2d+2      21Mg3d-2      21Mg3d-1      21Mg3d0       21Mg3d+1      21Mg3d+2      21Mg4d-2      21Mg4d-1   
  191   21Mg4d0       21Mg4d+1      21Mg4d+2      21Mg5d-2      21Mg5d-1      21Mg5d0       21Mg5d+1      21Mg5d+2      21Mg6d-2      21Mg6d-1   
  192   21Mg6d0       21Mg6d+1      21Mg6d+2      21Mg7d-2      21Mg7d-1      21Mg7d0       21Mg7d+1      21Mg7d+2      21Mg1f-3      21Mg1f-2   
  193   21Mg1f-1      21Mg1f0       21Mg1f+1      21Mg1f+2      21Mg1f+3      21Mg2f-3      21Mg2f-2      21Mg2f-1      21Mg2f0       21Mg2f+1   
  194   21Mg2f+2      21Mg2f+3      21Mg3f-3      21Mg3f-2      21Mg3f-1      21Mg3f0       21Mg3f+1      21Mg3f+2      21Mg3f+3      21Mg4f-3   
  195   21Mg4f-2      21Mg4f-1      21Mg4f0       21Mg4f+1      21Mg4f+2      21Mg4f+3      21Mg1g-4      21Mg1g-3      21Mg1g-2      21Mg1g-1   
  196   21Mg1g0       21Mg1g+1      21Mg1g+2      21Mg1g+3      21Mg1g+4      22Mg1s        22Mg2s        22Mg3s        22Mg4s        22Mg5s     
  197   22Mg6s        22Mg7s        22Mg8s        22Mg9s        22Mg10s       22Mg11s       22Mg12s       22Mg13s       22Mg1pz       22Mg1py    
  198   22Mg1px       22Mg2pz       22Mg2py       22Mg2px       22Mg3pz       22Mg3py       22Mg3px       22Mg4pz       22Mg4py       22Mg4px    
  199   22Mg5pz       22Mg5py       22Mg5px       22Mg6pz       22Mg6py       22Mg6px       22Mg7pz       22Mg7py       22Mg7px       22Mg8pz    
  200   22Mg8py       22Mg8px       22Mg9pz       22Mg9py       22Mg9px       22Mg1d-2      22Mg1d-1      22Mg1d0       22Mg1d+1      22Mg1d+2   
  201   22Mg2d-2      22Mg2d-1      22Mg2d0       22Mg2d+1      22Mg2d+2      22Mg3d-2      22Mg3d-1      22Mg3d0       22Mg3d+1      22Mg3d+2   
  202   22Mg4d-2      22Mg4d-1      22Mg4d0       22Mg4d+1      22Mg4d+2      22Mg5d-2      22Mg5d-1      22Mg5d0       22Mg5d+1      22Mg5d+2   
  203   22Mg6d-2      22Mg6d-1      22Mg6d0       22Mg6d+1      22Mg6d+2      22Mg7d-2      22Mg7d-1      22Mg7d0       22Mg7d+1      22Mg7d+2   
  204   22Mg1f-3      22Mg1f-2      22Mg1f-1      22Mg1f0       22Mg1f+1      22Mg1f+2      22Mg1f+3      22Mg2f-3      22Mg2f-2      22Mg2f-1   
  205   22Mg2f0       22Mg2f+1      22Mg2f+2      22Mg2f+3      22Mg3f-3      22Mg3f-2      22Mg3f-1      22Mg3f0       22Mg3f+1      22Mg3f+2   
  206   22Mg3f+3      22Mg4f-3      22Mg4f-2      22Mg4f-1      22Mg4f0       22Mg4f+1      22Mg4f+2      22Mg4f+3      22Mg1g-4      22Mg1g-3   
  207   22Mg1g-2      22Mg1g-1      22Mg1g0       22Mg1g+1      22Mg1g+2      22Mg1g+3      22Mg1g+4      23Mg1s        23Mg2s        23Mg3s     
  208   23Mg4s        23Mg5s        23Mg6s        23Mg7s        23Mg8s        23Mg9s        23Mg10s       23Mg11s       23Mg12s       23Mg13s    
  209   23Mg1pz       23Mg1py       23Mg1px       23Mg2pz       23Mg2py       23Mg2px       23Mg3pz       23Mg3py       23Mg3px       23Mg4pz    
  210   23Mg4py       23Mg4px       23Mg5pz       23Mg5py       23Mg5px       23Mg6pz       23Mg6py       23Mg6px       23Mg7pz       23Mg7py    
  211   23Mg7px       23Mg8pz       23Mg8py       23Mg8px       23Mg9pz       23Mg9py       23Mg9px       23Mg1d-2      23Mg1d-1      23Mg1d0    
  212   23Mg1d+1      23Mg1d+2      23Mg2d-2      23Mg2d-1      23Mg2d0       23Mg2d+1      23Mg2d+2      23Mg3d-2      23Mg3d-1      23Mg3d0    
  213   23Mg3d+1      23Mg3d+2      23Mg4d-2      23Mg4d-1      23Mg4d0       23Mg4d+1      23Mg4d+2      23Mg5d-2      23Mg5d-1      23Mg5d0    
  214   23Mg5d+1      23Mg5d+2      23Mg6d-2      23Mg6d-1      23Mg6d0       23Mg6d+1      23Mg6d+2      23Mg7d-2      23Mg7d-1      23Mg7d0    
  215   23Mg7d+1      23Mg7d+2      23Mg1f-3      23Mg1f-2      23Mg1f-1      23Mg1f0       23Mg1f+1      23Mg1f+2      23Mg1f+3      23Mg2f-3   
  216   23Mg2f-2      23Mg2f-1      23Mg2f0       23Mg2f+1      23Mg2f+2      23Mg2f+3      23Mg3f-3      23Mg3f-2      23Mg3f-1      23Mg3f0    
  217   23Mg3f+1      23Mg3f+2      23Mg3f+3      23Mg4f-3      23Mg4f-2      23Mg4f-1      23Mg4f0       23Mg4f+1      23Mg4f+2      23Mg4f+3   
  218   23Mg1g-4      23Mg1g-3      23Mg1g-2      23Mg1g-1      23Mg1g0       23Mg1g+1      23Mg1g+2      23Mg1g+3      23Mg1g+4      24Mg1s     
  219   24Mg2s        24Mg3s        24Mg4s        24Mg5s        24Mg6s        24Mg7s        24Mg8s        24Mg9s        24Mg10s       24Mg11s    
  220   24Mg12s       24Mg13s       24Mg1pz       24Mg1py       24Mg1px       24Mg2pz       24Mg2py       24Mg2px       24Mg3pz       24Mg3py    
  221   24Mg3px       24Mg4pz       24Mg4py       24Mg4px       24Mg5pz       24Mg5py       24Mg5px       24Mg6pz       24Mg6py       24Mg6px    
  222   24Mg7pz       24Mg7py       24Mg7px       24Mg8pz       24Mg8py       24Mg8px       24Mg9pz       24Mg9py       24Mg9px       24Mg1d-2   
  223   24Mg1d-1      24Mg1d0       24Mg1d+1      24Mg1d+2      24Mg2d-2      24Mg2d-1      24Mg2d0       24Mg2d+1      24Mg2d+2      24Mg3d-2   
  224   24Mg3d-1      24Mg3d0       24Mg3d+1      24Mg3d+2      24Mg4d-2      24Mg4d-1      24Mg4d0       24Mg4d+1      24Mg4d+2      24Mg5d-2   
  225   24Mg5d-1      24Mg5d0       24Mg5d+1      24Mg5d+2      24Mg6d-2      24Mg6d-1      24Mg6d0       24Mg6d+1      24Mg6d+2      24Mg7d-2   
  226   24Mg7d-1      24Mg7d0       24Mg7d+1      24Mg7d+2      24Mg1f-3      24Mg1f-2      24Mg1f-1      24Mg1f0       24Mg1f+1      24Mg1f+2   
  227   24Mg1f+3      24Mg2f-3      24Mg2f-2      24Mg2f-1      24Mg2f0       24Mg2f+1      24Mg2f+2      24Mg2f+3      24Mg3f-3      24Mg3f-2   
  228   24Mg3f-1      24Mg3f0       24Mg3f+1      24Mg3f+2      24Mg3f+3      24Mg4f-3      24Mg4f-2      24Mg4f-1      24Mg4f0       24Mg4f+1   
  229   24Mg4f+2      24Mg4f+3      24Mg1g-4      24Mg1g-3      24Mg1g-2      24Mg1g-1      24Mg1g0       24Mg1g+1      24Mg1g+2      24Mg1g+3   
  230   24Mg1g+4      25O1s         25O2s         25O3s         25O4s         25O5s         25O6s         25O7s         25O8s         25O9s      
  231   25O10s        25O1pz        25O1py        25O1px        25O2pz        25O2py        25O2px        25O3pz        25O3py        25O3px     
  232   25O4pz        25O4py        25O4px        25O5pz        25O5py        25O5px        25O6pz        25O6py        25O6px        25O7pz     
  233   25O7py        25O7px        25O8pz        25O8py        25O8px        25O1d-2       25O1d-1       25O1d0        25O1d+1       25O1d+2    
  234   25O2d-2       25O2d-1       25O2d0        25O2d+1       25O2d+2       25O3d-2       25O3d-1       25O3d0        25O3d+1       25O3d+2    
  235   25O4d-2       25O4d-1       25O4d0        25O4d+1       25O4d+2       25O1f-3       25O1f-2       25O1f-1       25O1f0        25O1f+1    
  236   25O1f+2       25O1f+3       25O2f-3       25O2f-2       25O2f-1       25O2f0        25O2f+1       25O2f+2       25O2f+3       25O1g-4    
  237   25O1g-3       25O1g-2       25O1g-1       25O1g0        25O1g+1       25O1g+2       25O1g+3       25O1g+4       26O1s         26O2s      
  238   26O3s         26O4s         26O5s         26O6s         26O7s         26O8s         26O9s         26O10s        26O1pz        26O1py     
  239   26O1px        26O2pz        26O2py        26O2px        26O3pz        26O3py        26O3px        26O4pz        26O4py        26O4px     
  240   26O5pz        26O5py        26O5px        26O6pz        26O6py        26O6px        26O7pz        26O7py        26O7px        26O8pz     
  241   26O8py        26O8px        26O1d-2       26O1d-1       26O1d0        26O1d+1       26O1d+2       26O2d-2       26O2d-1       26O2d0     
  242   26O2d+1       26O2d+2       26O3d-2       26O3d-1       26O3d0        26O3d+1       26O3d+2       26O4d-2       26O4d-1       26O4d0     
  243   26O4d+1       26O4d+2       26O1f-3       26O1f-2       26O1f-1       26O1f0        26O1f+1       26O1f+2       26O1f+3       26O2f-3    
  244   26O2f-2       26O2f-1       26O2f0        26O2f+1       26O2f+2       26O2f+3       26O1g-4       26O1g-3       26O1g-2       26O1g-1    
  245   26O1g0        26O1g+1       26O1g+2       26O1g+3       26O1g+4       27O1s         27O2s         27O3s         27O4s         27O5s      
  246   27O6s         27O7s         27O8s         27O9s         27O10s        27O1pz        27O1py        27O1px        27O2pz        27O2py     
  247   27O2px        27O3pz        27O3py        27O3px        27O4pz        27O4py        27O4px        27O5pz        27O5py        27O5px     
  248   27O6pz        27O6py        27O6px        27O7pz        27O7py        27O7px        27O8pz        27O8py        27O8px        27O1d-2    
  249   27O1d-1       27O1d0        27O1d+1       27O1d+2       27O2d-2       27O2d-1       27O2d0        27O2d+1       27O2d+2       27O3d-2    
  250   27O3d-1       27O3d0        27O3d+1       27O3d+2       27O4d-2       27O4d-1       27O4d0        27O4d+1       27O4d+2       27O1f-3    
  251   27O1f-2       27O1f-1       27O1f0        27O1f+1       27O1f+2       27O1f+3       27O2f-3       27O2f-2       27O2f-1       27O2f0     
  252   27O2f+1       27O2f+2       27O2f+3       27O1g-4       27O1g-3       27O1g-2       27O1g-1       27O1g0        27O1g+1       27O1g+2    
  253   27O1g+3       27O1g+4       28O1s         28O2s         28O3s         28O4s         28O5s         28O6s         28O7s         28O8s      
  254   28O9s         28O10s        28O1pz        28O1py        28O1px        28O2pz        28O2py        28O2px        28O3pz        28O3py     
  255   28O3px        28O4pz        28O4py        28O4px        28O5pz        28O5py        28O5px        28O6pz        28O6py        28O6px     
  256   28O7pz        28O7py        28O7px        28O8pz        28O8py        28O8px        28O1d-2       28O1d-1       28O1d0        28O1d+1    
  257   28O1d+2       28O2d-2       28O2d-1       28O2d0        28O2d+1       28O2d+2       28O3d-2       28O3d-1       28O3d0        28O3d+1    
  258   28O3d+2       28O4d-2       28O4d-1       28O4d0        28O4d+1       28O4d+2       28O1f-3       28O1f-2       28O1f-1       28O1f0     
  259   28O1f+1       28O1f+2       28O1f+3       28O2f-3       28O2f-2       28O2f-1       28O2f0        28O2f+1       28O2f+2       28O2f+3    
  260   28O1g-4       28O1g-3       28O1g-2       28O1g-1       28O1g0        28O1g+1       28O1g+2       28O1g+3       28O1g+4       29O1s      
  261   29O2s         29O3s         29O4s         29O5s         29O6s         29O7s         29O8s         29O9s         29O10s        29O1pz     
  262   29O1py        29O1px        29O2pz        29O2py        29O2px        29O3pz        29O3py        29O3px        29O4pz        29O4py     
  263   29O4px        29O5pz        29O5py        29O5px        29O6pz        29O6py        29O6px        29O7pz        29O7py        29O7px     
  264   29O8pz        29O8py        29O8px        29O1d-2       29O1d-1       29O1d0        29O1d+1       29O1d+2       29O2d-2       29O2d-1    
  265   29O2d0        29O2d+1       29O2d+2       29O3d-2       29O3d-1       29O3d0        29O3d+1       29O3d+2       29O4d-2       29O4d-1    
  266   29O4d0        29O4d+1       29O4d+2       29O1f-3       29O1f-2       29O1f-1       29O1f0        29O1f+1       29O1f+2       29O1f+3    
  267   29O2f-3       29O2f-2       29O2f-1       29O2f0        29O2f+1       29O2f+2       29O2f+3       29O1g-4       29O1g-3       29O1g-2    
  268   29O1g-1       29O1g0        29O1g+1       29O1g+2       29O1g+3       29O1g+4       30O1s         30O2s         30O3s         30O4s      
  269   30O5s         30O6s         30O7s         30O8s         30O9s         30O10s        30O1pz        30O1py        30O1px        30O2pz     
  270   30O2py        30O2px        30O3pz        30O3py        30O3px        30O4pz        30O4py        30O4px        30O5pz        30O5py     
  271   30O5px        30O6pz        30O6py        30O6px        30O7pz        30O7py        30O7px        30O8pz        30O8py        30O8px     
  272   30O1d-2       30O1d-1       30O1d0        30O1d+1       30O1d+2       30O2d-2       30O2d-1       30O2d0        30O2d+1       30O2d+2    
  273   30O3d-2       30O3d-1       30O3d0        30O3d+1       30O3d+2       30O4d-2       30O4d-1       30O4d0        30O4d+1       30O4d+2    
  274   30O1f-3       30O1f-2       30O1f-1       30O1f0        30O1f+1       30O1f+2       30O1f+3       30O2f-3       30O2f-2       30O2f-1    
  275   30O2f0        30O2f+1       30O2f+2       30O2f+3       30O1g-4       30O1g-3       30O1g-2       30O1g-1       30O1g0        30O1g+1    
  276   30O1g+2       30O1g+3       30O1g+4       31O1s         31O2s         31O3s         31O4s         31O5s         31O6s         31O7s      
  277   31O8s         31O9s         31O10s        31O1pz        31O1py        31O1px        31O2pz        31O2py        31O2px        31O3pz     
  278   31O3py        31O3px        31O4pz        31O4py        31O4px        31O5pz        31O5py        31O5px        31O6pz        31O6py     
[...]
  651   59O1g-2       59O1g-1       59O1g0        59O1g+1       59O1g+2       59O1g+3       59O1g+4       59O2g-4       59O2g-3       59O2g-2    
  652   59O2g-1       59O2g0        59O2g+1       59O2g+2       59O2g+3       59O2g+4       60O1s         60O2s         60O3s         60O4s      
  653   60O5s         60O6s         60O7s         60O8s         60O9s         60O1pz        60O1py        60O1px        60O2pz        60O2py     
  654   60O2px        60O3pz        60O3py        60O3px        60O4pz        60O4py        60O4px        60O5pz        60O5py        60O5px     
  655   60O6pz        60O6py        60O6px        60O7pz        60O7py        60O7px        60O1d-2       60O1d-1       60O1d0        60O1d+1    
  656   60O1d+2       60O2d-2       60O2d-1       60O2d0        60O2d+1       60O2d+2       60O3d-2       60O3d-1       60O3d0        60O3d+1    
  657   60O3d+2       60O4d-2       60O4d-1       60O4d0        60O4d+1       60O4d+2       60O5d-2       60O5d-1       60O5d0        60O5d+1    
  658   60O5d+2       60O6d-2       60O6d-1       60O6d0        60O6d+1       60O6d+2       60O1f-3       60O1f-2       60O1f-1       60O1f0     
  659   60O1f+1       60O1f+2       60O1f+3       60O2f-3       60O2f-2       60O2f-1       60O2f0        60O2f+1       60O2f+2       60O2f+3    
  660   60O3f-3       60O3f-2       60O3f-1       60O3f0        60O3f+1       60O3f+2       60O3f+3       60O4f-3       60O4f-2       60O4f-1    
  661   60O4f0        60O4f+1       60O4f+2       60O4f+3       60O1g-4       60O1g-3       60O1g-2       60O1g-1       60O1g0        60O1g+1    
  662   60O1g+2       60O1g+3       60O1g+4       60O2g-4       60O2g-3       60O2g-2       60O2g-1       60O2g0        60O2g+1       60O2g+2    
  663   60O2g+3       60O2g+4    
 
 Maximum number of basis functions per shell:   35
 Total number of basis functions:   6632
 
 
 Old basis set for SCF restart
 
   1  C  def2-svp [ 7s 4p 1d | 3s 2p 1d ]
   2  O  def2-svp [ 7s 4p 1d | 3s 2p 1d ]
   3  Mg def2-svp [ 10s 7p 1d | 4s 3p 1d ]
   4  O  def2-svp [ 7s 4p 1d | 3s 2p 1d ]
   5  O  def2-svp [ 7s 4p 1d | 3s 2p 1d ]
   6  O  def2-svp [ 7s 4p 1d | 3s 2p 1d ]
   7  O  def2-svp [ 7s 4p 1d | 3s 2p 1d ]
   8  O  def2-svp [ 7s 4p 1d | 3s 2p 1d ]
   9  Mg def2-svp [ 10s 7p 1d | 4s 3p 1d ]
  10  Mg def2-svp [ 10s 7p 1d | 4s 3p 1d ]
  11  Mg def2-svp [ 10s 7p 1d | 4s 3p 1d ]
  12  Mg def2-svp [ 10s 7p 1d | 4s 3p 1d ]
  13  Mg def2-svp [ 10s 7p 1d | 4s 3p 1d ]
  14  Mg def2-svp [ 10s 7p 1d | 4s 3p 1d ]
  15  Mg def2-svp [ 10s 7p 1d | 4s 3p 1d ]
  16  Mg def2-svp [ 10s 7p 1d | 4s 3p 1d ]
  17  O  def2-svp [ 7s 4p 1d | 3s 2p 1d ]
  18  O  def2-svp [ 7s 4p 1d | 3s 2p 1d ]
  19  O  def2-svp [ 7s 4p 1d | 3s 2p 1d ]
  20  O  def2-svp [ 7s 4p 1d | 3s 2p 1d ]
  21  Mg def2-svp [ 10s 7p 1d | 4s 3p 1d ]
  22  Mg def2-svp [ 10s 7p 1d | 4s 3p 1d ]
  23  Mg def2-svp [ 10s 7p 1d | 4s 3p 1d ]
  24  Mg def2-svp [ 10s 7p 1d | 4s 3p 1d ]
  25  O  def2-svp [ 7s 4p 1d | 3s 2p 1d ]
  26  O  def2-svp [ 7s 4p 1d | 3s 2p 1d ]
  27  O  def2-svp [ 7s 4p 1d | 3s 2p 1d ]
  28  O  def2-svp [ 7s 4p 1d | 3s 2p 1d ]
  29  O  def2-svp [ 7s 4p 1d | 3s 2p 1d ]
  30  O  def2-svp [ 7s 4p 1d | 3s 2p 1d ]
  31  O  def2-svp [ 7s 4p 1d | 3s 2p 1d ]
  32  O  def2-svp [ 7s 4p 1d | 3s 2p 1d ]
  33  O  def2-svp [ 7s 4p 1d | 3s 2p 1d ]
  34  O  def2-svp [ 7s 4p 1d | 3s 2p 1d ]
  35  O  def2-svp [ 7s 4p 1d | 3s 2p 1d ]
  36  O  def2-svp [ 7s 4p 1d | 3s 2p 1d ]
  37  O  def2-svp [ 7s 4p 1d | 3s 2p 1d ]
  38  O  def2-svp [ 7s 4p 1d | 3s 2p 1d ]
  39  O  def2-svp [ 7s 4p 1d | 3s 2p 1d ]
  40  O  def2-svp [ 7s 4p 1d | 3s 2p 1d ]
  41  Mg def2-svp [ 10s 7p 1d | 4s 3p 1d ]
  42  Mg def2-svp [ 10s 7p 1d | 4s 3p 1d ]
  43  Mg def2-svp [ 10s 7p 1d | 4s 3p 1d ]
  44  Mg def2-svp [ 10s 7p 1d | 4s 3p 1d ]
  45  O  def2-svp [ 7s 4p 1d | 3s 2p 1d ]
  46  O  def2-svp [ 7s 4p 1d | 3s 2p 1d ]
  47  O  def2-svp [ 7s 4p 1d | 3s 2p 1d ]
  48  O  def2-svp [ 7s 4p 1d | 3s 2p 1d ]
  49  O  def2-svp [ 7s 4p 1d | 3s 2p 1d ]
  50  O  def2-svp [ 7s 4p 1d | 3s 2p 1d ]
  51  O  def2-svp [ 7s 4p 1d | 3s 2p 1d ]
  52  O  def2-svp [ 7s 4p 1d | 3s 2p 1d ]
  53  O  def2-svp [ 7s 4p 1d | 3s 2p 1d ]
  54  O  def2-svp [ 7s 4p 1d | 3s 2p 1d ]
  55  O  def2-svp [ 7s 4p 1d | 3s 2p 1d ]
  56  O  def2-svp [ 7s 4p 1d | 3s 2p 1d ]
  57  O  def2-svp [ 7s 4p 1d | 3s 2p 1d ]
  58  O  def2-svp [ 7s 4p 1d | 3s 2p 1d ]
  59  O  def2-svp [ 7s 4p 1d | 3s 2p 1d ]
  60  O  def2-svp [ 7s 4p 1d | 3s 2p 1d ]
 
 Basis functions:
            1             2             3             4             5             6             7             8             9            10
    0    1C1s          1C2s          1C3s          1C1pz         1C1py         1C1px         1C2pz         1C2py         1C2px         1C1d-2    
    1    1C1d-1        1C1d0         1C1d+1        1C1d+2        2O1s          2O2s          2O3s          2O1pz         2O1py         2O1px     
    2    2O2pz         2O2py         2O2px         2O1d-2        2O1d-1        2O1d0         2O1d+1        2O1d+2        3Mg1s         3Mg2s     
    3    3Mg3s         3Mg4s         3Mg1pz        3Mg1py        3Mg1px        3Mg2pz        3Mg2py        3Mg2px        3Mg3pz        3Mg3py    
    4    3Mg3px        3Mg1d-2       3Mg1d-1       3Mg1d0        3Mg1d+1       3Mg1d+2       4O1s          4O2s          4O3s          4O1pz     
    5    4O1py         4O1px         4O2pz         4O2py         4O2px         4O1d-2        4O1d-1        4O1d0         4O1d+1        4O1d+2    
    6    5O1s          5O2s          5O3s          5O1pz         5O1py         5O1px         5O2pz         5O2py         5O2px         5O1d-2    
    7    5O1d-1        5O1d0         5O1d+1        5O1d+2        6O1s          6O2s          6O3s          6O1pz         6O1py         6O1px     
    8    6O2pz         6O2py         6O2px         6O1d-2        6O1d-1        6O1d0         6O1d+1        6O1d+2        7O1s          7O2s      
    9    7O3s          7O1pz         7O1py         7O1px         7O2pz         7O2py         7O2px         7O1d-2        7O1d-1        7O1d0     
   10    7O1d+1        7O1d+2        8O1s          8O2s          8O3s          8O1pz         8O1py         8O1px         8O2pz         8O2py     
   11    8O2px         8O1d-2        8O1d-1        8O1d0         8O1d+1        8O1d+2        9Mg1s         9Mg2s         9Mg3s         9Mg4s     
   12    9Mg1pz        9Mg1py        9Mg1px        9Mg2pz        9Mg2py        9Mg2px        9Mg3pz        9Mg3py        9Mg3px        9Mg1d-2   
   13    9Mg1d-1       9Mg1d0        9Mg1d+1       9Mg1d+2      10Mg1s        10Mg2s        10Mg3s        10Mg4s        10Mg1pz       10Mg1py    
   14   10Mg1px       10Mg2pz       10Mg2py       10Mg2px       10Mg3pz       10Mg3py       10Mg3px       10Mg1d-2      10Mg1d-1      10Mg1d0    
   15   10Mg1d+1      10Mg1d+2      11Mg1s        11Mg2s        11Mg3s        11Mg4s        11Mg1pz       11Mg1py       11Mg1px       11Mg2pz    
   16   11Mg2py       11Mg2px       11Mg3pz       11Mg3py       11Mg3px       11Mg1d-2      11Mg1d-1      11Mg1d0       11Mg1d+1      11Mg1d+2   
   17   12Mg1s        12Mg2s        12Mg3s        12Mg4s        12Mg1pz       12Mg1py       12Mg1px       12Mg2pz       12Mg2py       12Mg2px    
   18   12Mg3pz       12Mg3py       12Mg3px       12Mg1d-2      12Mg1d-1      12Mg1d0       12Mg1d+1      12Mg1d+2      13Mg1s        13Mg2s     
   19   13Mg3s        13Mg4s        13Mg1pz       13Mg1py       13Mg1px       13Mg2pz       13Mg2py       13Mg2px       13Mg3pz       13Mg3py    
   20   13Mg3px       13Mg1d-2      13Mg1d-1      13Mg1d0       13Mg1d+1      13Mg1d+2      14Mg1s        14Mg2s        14Mg3s        14Mg4s     
   21   14Mg1pz       14Mg1py       14Mg1px       14Mg2pz       14Mg2py       14Mg2px       14Mg3pz       14Mg3py       14Mg3px       14Mg1d-2   
   22   14Mg1d-1      14Mg1d0       14Mg1d+1      14Mg1d+2      15Mg1s        15Mg2s        15Mg3s        15Mg4s        15Mg1pz       15Mg1py    
   23   15Mg1px       15Mg2pz       15Mg2py       15Mg2px       15Mg3pz       15Mg3py       15Mg3px       15Mg1d-2      15Mg1d-1      15Mg1d0    
   24   15Mg1d+1      15Mg1d+2      16Mg1s        16Mg2s        16Mg3s        16Mg4s        16Mg1pz       16Mg1py       16Mg1px       16Mg2pz    
   25   16Mg2py       16Mg2px       16Mg3pz       16Mg3py       16Mg3px       16Mg1d-2      16Mg1d-1      16Mg1d0       16Mg1d+1      16Mg1d+2   
   26   17O1s         17O2s         17O3s         17O1pz        17O1py        17O1px        17O2pz        17O2py        17O2px        17O1d-2    
   27   17O1d-1       17O1d0        17O1d+1       17O1d+2       18O1s         18O2s         18O3s         18O1pz        18O1py        18O1px     
   28   18O2pz        18O2py        18O2px        18O1d-2       18O1d-1       18O1d0        18O1d+1       18O1d+2       19O1s         19O2s      
   29   19O3s         19O1pz        19O1py        19O1px        19O2pz        19O2py        19O2px        19O1d-2       19O1d-1       19O1d0     
   30   19O1d+1       19O1d+2       20O1s         20O2s         20O3s         20O1pz        20O1py        20O1px        20O2pz        20O2py     
   31   20O2px        20O1d-2       20O1d-1       20O1d0        20O1d+1       20O1d+2       21Mg1s        21Mg2s        21Mg3s        21Mg4s     
   32   21Mg1pz       21Mg1py       21Mg1px       21Mg2pz       21Mg2py       21Mg2px       21Mg3pz       21Mg3py       21Mg3px       21Mg1d-2   
   33   21Mg1d-1      21Mg1d0       21Mg1d+1      21Mg1d+2      22Mg1s        22Mg2s        22Mg3s        22Mg4s        22Mg1pz       22Mg1py    
   34   22Mg1px       22Mg2pz       22Mg2py       22Mg2px       22Mg3pz       22Mg3py       22Mg3px       22Mg1d-2      22Mg1d-1      22Mg1d0    
   35   22Mg1d+1      22Mg1d+2      23Mg1s        23Mg2s        23Mg3s        23Mg4s        23Mg1pz       23Mg1py       23Mg1px       23Mg2pz    
   36   23Mg2py       23Mg2px       23Mg3pz       23Mg3py       23Mg3px       23Mg1d-2      23Mg1d-1      23Mg1d0       23Mg1d+1      23Mg1d+2   
   37   24Mg1s        24Mg2s        24Mg3s        24Mg4s        24Mg1pz       24Mg1py       24Mg1px       24Mg2pz       24Mg2py       24Mg2px    
   38   24Mg3pz       24Mg3py       24Mg3px       24Mg1d-2      24Mg1d-1      24Mg1d0       24Mg1d+1      24Mg1d+2      25O1s         25O2s      
   39   25O3s         25O1pz        25O1py        25O1px        25O2pz        25O2py        25O2px        25O1d-2       25O1d-1       25O1d0     
   40   25O1d+1       25O1d+2       26O1s         26O2s         26O3s         26O1pz        26O1py        26O1px        26O2pz        26O2py     
   41   26O2px        26O1d-2       26O1d-1       26O1d0        26O1d+1       26O1d+2       27O1s         27O2s         27O3s         27O1pz     
   42   27O1py        27O1px        27O2pz        27O2py        27O2px        27O1d-2       27O1d-1       27O1d0        27O1d+1       27O1d+2    
   43   28O1s         28O2s         28O3s         28O1pz        28O1py        28O1px        28O2pz        28O2py        28O2px        28O1d-2    
   44   28O1d-1       28O1d0        28O1d+1       28O1d+2       29O1s         29O2s         29O3s         29O1pz        29O1py        29O1px     
   45   29O2pz        29O2py        29O2px        29O1d-2       29O1d-1       29O1d0        29O1d+1       29O1d+2       30O1s         30O2s      
   46   30O3s         30O1pz        30O1py        30O1px        30O2pz        30O2py        30O2px        30O1d-2       30O1d-1       30O1d0     
   47   30O1d+1       30O1d+2       31O1s         31O2s         31O3s         31O1pz        31O1py        31O1px        31O2pz        31O2py     
   48   31O2px        31O1d-2       31O1d-1       31O1d0        31O1d+1       31O1d+2       32O1s         32O2s         32O3s         32O1pz     
   49   32O1py        32O1px        32O2pz        32O2py        32O2px        32O1d-2       32O1d-1       32O1d0        32O1d+1       32O1d+2    
   50   33O1s         33O2s         33O3s         33O1pz        33O1py        33O1px        33O2pz        33O2py        33O2px        33O1d-2    
   51   33O1d-1       33O1d0        33O1d+1       33O1d+2       34O1s         34O2s         34O3s         34O1pz        34O1py        34O1px     
   52   34O2pz        34O2py        34O2px        34O1d-2       34O1d-1       34O1d0        34O1d+1       34O1d+2       35O1s         35O2s      
   53   35O3s         35O1pz        35O1py        35O1px        35O2pz        35O2py        35O2px        35O1d-2       35O1d-1       35O1d0     
   54   35O1d+1       35O1d+2       36O1s         36O2s         36O3s         36O1pz        36O1py        36O1px        36O2pz        36O2py     
   55   36O2px        36O1d-2       36O1d-1       36O1d0        36O1d+1       36O1d+2       37O1s         37O2s         37O3s         37O1pz     
   56   37O1py        37O1px        37O2pz        37O2py        37O2px        37O1d-2       37O1d-1       37O1d0        37O1d+1       37O1d+2    
   57   38O1s         38O2s         38O3s         38O1pz        38O1py        38O1px        38O2pz        38O2py        38O2px        38O1d-2    
   58   38O1d-1       38O1d0        38O1d+1       38O1d+2       39O1s         39O2s         39O3s         39O1pz        39O1py        39O1px     
   59   39O2pz        39O2py        39O2px        39O1d-2       39O1d-1       39O1d0        39O1d+1       39O1d+2       40O1s         40O2s      
   60   40O3s         40O1pz        40O1py        40O1px        40O2pz        40O2py        40O2px        40O1d-2       40O1d-1       40O1d0     
   61   40O1d+1       40O1d+2       41Mg1s        41Mg2s        41Mg3s        41Mg4s        41Mg1pz       41Mg1py       41Mg1px       41Mg2pz    
   62   41Mg2py       41Mg2px       41Mg3pz       41Mg3py       41Mg3px       41Mg1d-2      41Mg1d-1      41Mg1d0       41Mg1d+1      41Mg1d+2   
   63   42Mg1s        42Mg2s        42Mg3s        42Mg4s        42Mg1pz       42Mg1py       42Mg1px       42Mg2pz       42Mg2py       42Mg2px    
   64   42Mg3pz       42Mg3py       42Mg3px       42Mg1d-2      42Mg1d-1      42Mg1d0       42Mg1d+1      42Mg1d+2      43Mg1s        43Mg2s     
   65   43Mg3s        43Mg4s        43Mg1pz       43Mg1py       43Mg1px       43Mg2pz       43Mg2py       43Mg2px       43Mg3pz       43Mg3py    
   66   43Mg3px       43Mg1d-2      43Mg1d-1      43Mg1d0       43Mg1d+1      43Mg1d+2      44Mg1s        44Mg2s        44Mg3s        44Mg4s     
   67   44Mg1pz       44Mg1py       44Mg1px       44Mg2pz       44Mg2py       44Mg2px       44Mg3pz       44Mg3py       44Mg3px       44Mg1d-2   
   68   44Mg1d-1      44Mg1d0       44Mg1d+1      44Mg1d+2      45O1s         45O2s         45O3s         45O1pz        45O1py        45O1px     
   69   45O2pz        45O2py        45O2px        45O1d-2       45O1d-1       45O1d0        45O1d+1       45O1d+2       46O1s         46O2s      
   70   46O3s         46O1pz        46O1py        46O1px        46O2pz        46O2py        46O2px        46O1d-2       46O1d-1       46O1d0     
   71   46O1d+1       46O1d+2       47O1s         47O2s         47O3s         47O1pz        47O1py        47O1px        47O2pz        47O2py     
   72   47O2px        47O1d-2       47O1d-1       47O1d0        47O1d+1       47O1d+2       48O1s         48O2s         48O3s         48O1pz     
   73   48O1py        48O1px        48O2pz        48O2py        48O2px        48O1d-2       48O1d-1       48O1d0        48O1d+1       48O1d+2    
   74   49O1s         49O2s         49O3s         49O1pz        49O1py        49O1px        49O2pz        49O2py        49O2px        49O1d-2    
   75   49O1d-1       49O1d0        49O1d+1       49O1d+2       50O1s         50O2s         50O3s         50O1pz        50O1py        50O1px     
   76   50O2pz        50O2py        50O2px        50O1d-2       50O1d-1       50O1d0        50O1d+1       50O1d+2       51O1s         51O2s      
   77   51O3s         51O1pz        51O1py        51O1px        51O2pz        51O2py        51O2px        51O1d-2       51O1d-1       51O1d0     
   78   51O1d+1       51O1d+2       52O1s         52O2s         52O3s         52O1pz        52O1py        52O1px        52O2pz        52O2py     
   79   52O2px        52O1d-2       52O1d-1       52O1d0        52O1d+1       52O1d+2       53O1s         53O2s         53O3s         53O1pz     
   80   53O1py        53O1px        53O2pz        53O2py        53O2px        53O1d-2       53O1d-1       53O1d0        53O1d+1       53O1d+2    
   81   54O1s         54O2s         54O3s         54O1pz        54O1py        54O1px        54O2pz        54O2py        54O2px        54O1d-2    
   82   54O1d-1       54O1d0        54O1d+1       54O1d+2       55O1s         55O2s         55O3s         55O1pz        55O1py        55O1px     
   83   55O2pz        55O2py        55O2px        55O1d-2       55O1d-1       55O1d0        55O1d+1       55O1d+2       56O1s         56O2s      
   84   56O3s         56O1pz        56O1py        56O1px        56O2pz        56O2py        56O2px        56O1d-2       56O1d-1       56O1d0     
   85   56O1d+1       56O1d+2       57O1s         57O2s         57O3s         57O1pz        57O1py        57O1px        57O2pz        57O2py     
   86   57O2px        57O1d-2       57O1d-1       57O1d0        57O1d+1       57O1d+2       58O1s         58O2s         58O3s         58O1pz     
   87   58O1py        58O1px        58O2pz        58O2py        58O2px        58O1d-2       58O1d-1       58O1d0        58O1d+1       58O1d+2    
   88   59O1s         59O2s         59O3s         59O1pz        59O1py        59O1px        59O2pz        59O2py        59O2px        59O1d-2    
   89   59O1d-1       59O1d0        59O1d+1       59O1d+2       60O1s         60O2s         60O3s         60O1pz        60O1py        60O1px     
   90   60O2pz        60O2py        60O2px        60O1d-2       60O1d-1       60O1d0        60O1d+1       60O1d+2    
 
 Maximum number of basis functions per shell:   35
 Total number of basis functions:    908
 
 
 Calculation of prescreening integrals...
 CPU time [min]:    37.367                   Wall time [min]:     1.062
 
 Calculation of two-center Coulomb integrals...
   1% done.
  12% done.
  23% done.
  34% done.
  45% done.
  56% done.
  67% done.
  78% done.
  89% done.
 100% done.
 CPU time [min]:    37.526                   Wall time [min]:     1.066
 
 Cholesky decomposition of the inverse of the two-center matrix...
 CPU time [min]:    38.037                   Wall time [min]:     1.094
 
 Calculation of three-center Coulomb integrals...
   1% done.
  12% done.
  23% done.
  34% done.
  45% done.
  56% done.
  67% done.
  78% done.
  89% done.
 100% done.
 CPU time [min]:   159.404                   Wall time [min]:     4.811

 ************************ 2023-04-26 04:50:47 *************************
 Executing drpa...

 Three-index integral transformation and DF-MP2 calculation
 
 Allocation of 200.0 Gbytes of memory...
 Minimal memory requirement for (ai|P) integrals:     1260.4 MB

 Calculating (ai|P) integrals...
 Number of integral batches:    1
 Occupied indices per batch:    5
 
 Transforming integrals of batch 1...
 CPU time [min]:   110.147                   Wall time [min]:     3.365
 
 
 
 Reference energy [au]:                      -112.778822225269
 DF-MP2 singlet pair energy [au]:              -0.272730292709
 DF-MP2 triplet pair energy [au]:              -0.092198703665
 DF-SCS-MP2 correlation energy [au]:           -0.358009252473
 DF-SCS-MP2 energy [au]:                     -113.136831477741
 DF-SOS-MP2 correlation energy [au]:           -0.354549380522
 DF-SOS-MP2 energy [au]:                     -113.133371605791
 DF-MP2 correlation energy [au]:               -0.364928996374
 DF-MP2 energy [au]:                         -113.143751221642
 
 ************************ 2023-04-26 04:54:10 *************************
                      Normal termination of mrcc.
 **********************************************************************
