 vasp.6.3.0 20Jan22 (build Apr  1 2022 16:44:48) complex                         
 executed on        HPECrayEX_GCC date 2023.05.17  21:49:20
 running  512 mpi-ranks, with    1 threads/rank
 distrk:  each k-point on  256 cores,    2 groups
 distr:  one band on NCORE=   4 cores,   64 groups


--------------------------------------------------------------------------------------------------------


 INCAR:
   SYSTEM = MgO-rocksalt
   ISMEAR = 0
   SIGMA = 0.05
   EDIFF = 1E-6
   ALGO = ALL
   ISTART = 0
   IBRION = -1
   NSW = 0
   ISYM = 2
   ISIF = 2
   EDIFFG = -0.01
   DIPOL = 0.5 0.5 0.5
   IDIPOL = 3
   LDIPOL = .TRUE.
   GGA = MK
   LUSE_VDW = .TRUE.
   PARAM1 = 0.1234
   PARAM2 = 0.711357
   ZAB_VDW = -1.8867
   AGGAC = 0.0
   ENCUT = 600
   PREC = Normal
   LASPH = .TRUE.
   LREAL = .FALSE.
   ISPIN = 1
   NELM = 200
   NELMIN = 8
   NCORE = 4
   KPAR = 2
   LWAVE = .FALSE.
   LCHARG = .FALSE.

 POTCAR:    PAW_PBE C 08Apr2002                   
 POTCAR:    PAW_PBE O 08Apr2002                   
 POTCAR:    PAW_PBE Mg_pv 13Apr2007               
 POTCAR:    PAW_PBE O 08Apr2002                   
 -----------------------------------------------------------------------------
|                                                                             |
|               ----> ADVICE to this user running VASP <----                  |
|                                                                             |
|     You have switched on vdW-DFT.                                           |
|     This routine was written and supplied by Jiri Klimes. We recommend      |
|     that you carefully read and cite the following publications:            |
|       J. Klimes, D.R. Bowler, A. Michelides                                 |
|          J. Phys.: Cond Matt. 22 022201 (2010)                              |
|       J. Klimes, D.R. Bowler, A. Michelides                                 |
|          Phys. Rev. B. 83, 195131 (2011)                                    |
|     and references therein.                                                 |
|                                                                             |
 -----------------------------------------------------------------------------

 POTCAR:    PAW_PBE C 08Apr2002                   
   SHA256 =  253f7b50bb8d59471dbedb8285d89021f4a42ed1a2c5d38a03a736e69125dd95 C/POTCAR              
   COPYR  = (c) Copyright 08Apr2002 Georg Kresse                                                    
   COPYR  = This file is part of the software VASP. Any use, copying, and all other rights are regul
   COPYR  = If you do not have a valid VASP license, you may not use, copy or distribute this file. 
   VRHFIN =C: s2p2                                                                                  
   LEXCH  = PE                                                                                      
   EATOM  =   147.1560 eV,   10.8157 Ry                                                             
                                                                                                    
   TITEL  = PAW_PBE C 08Apr2002                                                                     
   LULTRA =        F    use ultrasoft PP ?                                                          
   IUNSCR =        1    unscreen: 0-lin 1-nonlin 2-no                                               
   RPACOR =    1.200    partial core radius                                                         
   POMASS =   12.011; ZVAL   =    4.000    mass and valenz                                          
   RCORE  =    1.500    outmost cutoff radius                                                       
   RWIGS  =    1.630; RWIGS  =    0.863    wigner-seitz radius (au A)                               
   ENMAX  =  400.000; ENMIN  =  300.000 eV                                                          
   ICORE  =        2    local potential                                                             
   LCOR   =        T    correct aug charges                                                         
   LPAW   =        T    paw PP                                                                      
   EAUG   =  644.873                                                                                
   DEXC   =    0.000                                                                                
   RMAX   =    1.529    core radius for proj-oper                                                   
   RAUG   =    1.300    factor for augmentation sphere                                              
   RDEP   =    1.501    radius for radial grids                                                     
   RDEPT  =    1.300    core radius for aug-charge                                                  
                                                                                                    
   Atomic configuration                                                                             
    4 entries                                                                                       
     n  l   j            E        occ.                                                              
     1  0  0.50      -273.3789   2.0000                                                             
     2  0  0.50       -13.7508   2.0000                                                             
     2  1  0.50        -5.2854   2.0000                                                             
     3  2  1.50        -5.4423   0.0000                                                             
   Description                                                                                      
     l       E           TYP  RCUT    TYP  RCUT                                                     
     0    -13.7508458     23  1.200                                                                 
     0     -8.2022199     23  1.200                                                                 
     1     -5.2854383     23  1.500                                                                 
     1     34.0145650     23  1.500                                                                 
     2     -5.4423304      7  1.500                                                                 
  local pseudopotential read in
  partial core-charges read in
  partial kinetic energy density read in
  atomic valenz-charges read in
  non local Contribution for L=           0  read in
    real space projection operators read in
  non local Contribution for L=           0  read in
    real space projection operators read in
  non local Contribution for L=           1  read in
    real space projection operators read in
  non local Contribution for L=           1  read in
    real space projection operators read in
    PAW grid and wavefunctions read in

   number of l-projection  operators is LMAX  =           4
   number of lm-projection operators is LMMAX =           8

 POTCAR:    PAW_PBE O 08Apr2002                   
   SHA256 =  818f92134a0a090dccd8ba1447fa70422a3b330e708bb4f08108d8ae51209ddf O/POTCAR              
   COPYR  = (c) Copyright 08Apr2002 Georg Kresse                                                    
   COPYR  = This file is part of the software VASP. Any use, copying, and all other rights are regul
   COPYR  = If you do not have a valid VASP license, you may not use, copy or distribute this file. 
   VRHFIN =O: s2p4                                                                                  
   LEXCH  = PE                                                                                      
   EATOM  =   432.3788 eV,   31.7789 Ry                                                             
                                                                                                    
   TITEL  = PAW_PBE O 08Apr2002                                                                     
   LULTRA =        F    use ultrasoft PP ?                                                          
   IUNSCR =        1    unscreen: 0-lin 1-nonlin 2-no                                               
   RPACOR =    1.200    partial core radius                                                         
   POMASS =   16.000; ZVAL   =    6.000    mass and valenz                                          
   RCORE  =    1.520    outmost cutoff radius                                                       
   RWIGS  =    1.550; RWIGS  =    0.820    wigner-seitz radius (au A)                               
   ENMAX  =  400.000; ENMIN  =  300.000 eV                                                          
   ICORE  =        2    local potential                                                             
   LCOR   =        T    correct aug charges                                                         
   LPAW   =        T    paw PP                                                                      
   EAUG   =  605.392                                                                                
   DEXC   =    0.000                                                                                
   RMAX   =    1.553    core radius for proj-oper                                                   
   RAUG   =    1.300    factor for augmentation sphere                                              
   RDEP   =    1.550    radius for radial grids                                                     
   RDEPT  =    1.329    core radius for aug-charge                                                  
                                                                                                    
   Atomic configuration                                                                             
    4 entries                                                                                       
     n  l   j            E        occ.                                                              
     1  0  0.50      -514.6923   2.0000                                                             
     2  0  0.50       -23.9615   2.0000                                                             
     2  1  0.50        -9.0305   4.0000                                                             
     3  2  1.50        -9.5241   0.0000                                                             
   Description                                                                                      
     l       E           TYP  RCUT    TYP  RCUT                                                     
     0    -23.9615318     23  1.200                                                                 
     0     -9.5240782     23  1.200                                                                 
     1     -9.0304911     23  1.520                                                                 
     1      8.1634956     23  1.520                                                                 
     2     -9.5240782      7  1.500                                                                 
  local pseudopotential read in
  partial core-charges read in
  partial kinetic energy density read in
  kinetic energy density of atom read in
  atomic valenz-charges read in
  non local Contribution for L=           0  read in
    real space projection operators read in
  non local Contribution for L=           0  read in
    real space projection operators read in
  non local Contribution for L=           1  read in
    real space projection operators read in
  non local Contribution for L=           1  read in
    real space projection operators read in
    PAW grid and wavefunctions read in

   number of l-projection  operators is LMAX  =           4
   number of lm-projection operators is LMMAX =           8

 POTCAR:    PAW_PBE Mg_pv 13Apr2007               
   SHA256 =  f474ac0dd33840b9ae76c01d57fea79fdf77cdfbb07d5ade72c65f83c709b62b Mg_pv/POTCAR          
   COPYR  = (c) Copyright 13Apr2007 Georg Kresse                                                    
   COPYR  = This file is part of the software VASP. Any use, copying, and all other rights are regul
   COPYR  = If you do not have a valid VASP license, you may not use, copy or distribute this file. 
   VRHFIN =Mg: p6s2                                                                                 
   LEXCH  = PE                                                                                      
   EATOM  =  1056.7344 eV,   77.6678 Ry                                                             
                                                                                                    
   TITEL  = PAW_PBE Mg_pv 13Apr2007                                                                 
   LULTRA =        F    use ultrasoft PP ?                                                          
   IUNSCR =        1    unscreen: 0-lin 1-nonlin 2-no                                               
   RPACOR =    1.500    partial core radius                                                         
   POMASS =   24.305; ZVAL   =    8.000    mass and valenz                                          
   RCORE  =    2.000    outmost cutoff radius                                                       
   RWIGS  =    2.000; RWIGS  =    1.058    wigner-seitz radius (au A)                               
   ENMAX  =  403.929; ENMIN  =  302.947 eV                                                          
   RCLOC  =    1.506    cutoff for local pot                                                        
   LCOR   =        T    correct aug charges                                                         
   LPAW   =        T    paw PP                                                                      
   EAUG   =  758.780                                                                                
   DEXC   =    0.000                                                                                
   RMAX   =    2.045    core radius for proj-oper                                                   
   RAUG   =    1.300    factor for augmentation sphere                                              
   RDEP   =    2.025    radius for radial grids                                                     
   RDEPT  =    1.557    core radius for aug-charge                                                  
                                                                                                    
   Atomic configuration                                                                             
    5 entries                                                                                       
     n  l   j            E        occ.                                                              
     1  0  0.50     -1259.6230   2.0000                                                             
     2  0  0.50       -79.8442   2.0000                                                             
     2  1  1.50       -46.6121   6.0000                                                             
     3  0  0.50        -4.7055   2.0000                                                             
     3  2  1.50        -1.3606   0.0000                                                             
   Description                                                                                      
     l       E           TYP  RCUT    TYP  RCUT                                                     
     1    -46.6121073     23  1.600                                                                 
     1      2.7211652     23  1.600                                                                 
     0     -4.7054661     23  2.000                                                                 
     0     61.2262170     23  2.000                                                                 
     2     -1.3605826     23  2.000                                                                 
  local pseudopotential read in
  partial core-charges read in
  partial kinetic energy density read in
  atomic valenz-charges read in
  non local Contribution for L=           1  read in
    real space projection operators read in
  non local Contribution for L=           1  read in
    real space projection operators read in
  non local Contribution for L=           0  read in
    real space projection operators read in
  non local Contribution for L=           0  read in
    real space projection operators read in
  non local Contribution for L=           2  read in
    real space projection operators read in
    PAW grid and wavefunctions read in

   number of l-projection  operators is LMAX  =           5
   number of lm-projection operators is LMMAX =          13

 POTCAR:    PAW_PBE O 08Apr2002                   
   SHA256 =  818f92134a0a090dccd8ba1447fa70422a3b330e708bb4f08108d8ae51209ddf O/POTCAR              
   COPYR  = (c) Copyright 08Apr2002 Georg Kresse                                                    
   COPYR  = This file is part of the software VASP. Any use, copying, and all other rights are regul
   COPYR  = If you do not have a valid VASP license, you may not use, copy or distribute this file. 
   VRHFIN =O: s2p4                                                                                  
   LEXCH  = PE                                                                                      
   EATOM  =   432.3788 eV,   31.7789 Ry                                                             
                                                                                                    
   TITEL  = PAW_PBE O 08Apr2002                                                                     
   LULTRA =        F    use ultrasoft PP ?                                                          
   IUNSCR =        1    unscreen: 0-lin 1-nonlin 2-no                                               
   RPACOR =    1.200    partial core radius                                                         
   POMASS =   16.000; ZVAL   =    6.000    mass and valenz                                          
   RCORE  =    1.520    outmost cutoff radius                                                       
   RWIGS  =    1.550; RWIGS  =    0.820    wigner-seitz radius (au A)                               
   ENMAX  =  400.000; ENMIN  =  300.000 eV                                                          
   ICORE  =        2    local potential                                                             
   LCOR   =        T    correct aug charges                                                         
   LPAW   =        T    paw PP                                                                      
   EAUG   =  605.392                                                                                
   DEXC   =    0.000                                                                                
   RMAX   =    1.553    core radius for proj-oper                                                   
   RAUG   =    1.300    factor for augmentation sphere                                              
   RDEP   =    1.550    radius for radial grids                                                     
   RDEPT  =    1.329    core radius for aug-charge                                                  
                                                                                                    
   Atomic configuration                                                                             
    4 entries                                                                                       
     n  l   j            E        occ.                                                              
     1  0  0.50      -514.6923   2.0000                                                             
     2  0  0.50       -23.9615   2.0000                                                             
     2  1  0.50        -9.0305   4.0000                                                             
     3  2  1.50        -9.5241   0.0000                                                             
   Description                                                                                      
     l       E           TYP  RCUT    TYP  RCUT                                                     
     0    -23.9615318     23  1.200                                                                 
     0     -9.5240782     23  1.200                                                                 
     1     -9.0304911     23  1.520                                                                 
     1      8.1634956     23  1.520                                                                 
     2     -9.5240782      7  1.500                                                                 
  local pseudopotential read in
  partial core-charges read in
  partial kinetic energy density read in
  kinetic energy density of atom read in
  atomic valenz-charges read in
  non local Contribution for L=           0  read in
    real space projection operators read in
  non local Contribution for L=           0  read in
    real space projection operators read in
  non local Contribution for L=           1  read in
    real space projection operators read in
  non local Contribution for L=           1  read in
    real space projection operators read in
    PAW grid and wavefunctions read in

   number of l-projection  operators is LMAX  =           4
   number of lm-projection operators is LMMAX =           8

 -----------------------------------------------------------------------------
|                                                                             |
|               ----> ADVICE to this user running VASP <----                  |
|                                                                             |
|     You have a (more or less) 'large supercell' and for larger cells it     |
|     might be more efficient to use real-space projection operators.         |
|     Therefore, try LREAL= Auto in the INCAR file.                           |
|     Mind: For very accurate calculation, you might also keep the            |
|     reciprocal projection scheme (i.e. LREAL=.FALSE.).                      |
|                                                                             |
 -----------------------------------------------------------------------------

 -----------------------------------------------------------------------------
|                                                                             |
|               ----> ADVICE to this user running VASP <----                  |
|                                                                             |
|     You enforced a specific xc type in the INCAR file but a different       |
|     type was found in the POTCAR file.                                      |
|     I HOPE YOU KNOW WHAT YOU ARE DOING!                                     |
|                                                                             |
 -----------------------------------------------------------------------------

  PAW_PBE C 08Apr2002                   :
 energy of atom  1       EATOM= -147.1560
 kinetic energy error for atom=    0.0057 (will be added to EATOM!!)
  PAW_PBE O 08Apr2002                   :
 energy of atom  2       EATOM= -432.3788
 kinetic energy error for atom=    0.0168 (will be added to EATOM!!)
  PAW_PBE Mg_pv 13Apr2007               :
 energy of atom  3       EATOM=-1056.7344
 kinetic energy error for atom=    0.0221 (will be added to EATOM!!)
  PAW_PBE O 08Apr2002                   :
 energy of atom  4       EATOM= -432.3788
 kinetic energy error for atom=    0.0168 (will be added to EATOM!!)


 POSCAR:  C  O Mg  O
  positions in direct lattice
  No initial velocities read in
 exchange correlation table for  LEXCH =       43
   RHO(1)=    0.500       N(1)  =     2000
   RHO(2)=  100.500       N(2)  =     4000



--------------------------------------------------------------------------------------------------------


 ion  position               nearest neighbor table
   1  0.500  0.500  0.763-   2 1.15
   2  0.500  0.500  0.817-   1 1.15
   3  0.000  0.750  0.352-  35 2.11  37 2.11  38 2.11  45 2.11  54 2.11
   4  0.250  0.000  0.352-  36 2.11  37 2.11  38 2.11  46 2.11  53 2.11
   5  0.000  0.000  0.451-  37 2.11  36 2.11  35 2.11  43 2.11  52 2.11  41 2.12
   6  0.250  0.750  0.451-  38 2.11  36 2.11  35 2.11  44 2.11  51 2.11  42 2.12
   7  0.000  0.750  0.550-  49 2.11  42 2.11  58 2.11  41 2.11  35 2.12  39 2.15
   8  0.250  0.000  0.550-  57 2.11  50 2.11  42 2.11  41 2.11  36 2.12  40 2.15
   9  0.000  0.000  0.649-  39 2.11  40 2.11  47 2.11  56 2.11  41 2.11
  10  0.250  0.750  0.649-  42 2.11  40 2.11  39 2.11  48 2.11  55 2.11
  11  0.000  0.250  0.352-  43 2.11  37 2.11  45 2.11  46 2.11  62 2.11
  12  0.250  0.500  0.352-  44 2.11  38 2.11  45 2.11  46 2.11  61 2.11
  13  0.000  0.500  0.451-  45 2.11  43 2.11  44 2.11  35 2.11  60 2.11  49 2.12
  14  0.250  0.250  0.451-  46 2.11  43 2.11  44 2.11  36 2.11  59 2.11  50 2.12
  15  0.000  0.250  0.550-  49 2.11  50 2.11  66 2.11  41 2.11  43 2.12  47 2.15
  16  0.250  0.500  0.550-  65 2.11  50 2.11  42 2.11  49 2.11  44 2.13  48 2.15
  17  0.000  0.500  0.649-  48 2.10  64 2.10  49 2.11  47 2.11  39 2.11
  18  0.250  0.250  0.649-  50 2.11  47 2.11  40 2.11  48 2.11  63 2.11
  19  0.500  0.750  0.352-  51 2.11  38 2.11  53 2.11  54 2.11  61 2.11
  20  0.750  0.000  0.352-  52 2.11  37 2.11  53 2.11  54 2.11  62 2.11
  21  0.500  0.000  0.451-  53 2.11  51 2.11  52 2.11  36 2.11  59 2.11  57 2.12
  22  0.750  0.750  0.451-  54 2.11  51 2.11  52 2.11  35 2.11  60 2.11  58 2.12
  23  0.500  0.750  0.550-  65 2.11  58 2.11  42 2.11  57 2.11  51 2.13  55 2.15
  24  0.750  0.000  0.550-  57 2.11  58 2.11  66 2.11  41 2.11  52 2.12  56 2.15
  25  0.500  0.000  0.649-  55 2.10  63 2.10  57 2.11  40 2.11  56 2.11
  26  0.750  0.750  0.649-  58 2.11  56 2.11  39 2.11  55 2.11  64 2.11
  27  0.500  0.250  0.352-  59 2.11  53 2.11  46 2.11  61 2.11  62 2.11
  28  0.750  0.500  0.352-  60 2.11  54 2.11  45 2.11  61 2.11  62 2.11
  29  0.500  0.500  0.451-  61 2.11  51 2.11  59 2.11  60 2.11  44 2.11  65 2.13
  30  0.750  0.250  0.451-  62 2.11  52 2.11  59 2.11  60 2.11  43 2.11  66 2.12
  31  0.500  0.250  0.550-  65 2.11  50 2.11  66 2.11  57 2.11  59 2.13  63 2.15
  32  0.750  0.500  0.550-  65 2.11  58 2.11  66 2.11  49 2.11  60 2.13  64 2.15
  33  0.500  0.500  0.651-  48 2.12  55 2.12  63 2.12  64 2.12  65 2.14
  34  0.750  0.250  0.649-  66 2.11  56 2.11  47 2.11  64 2.11  63 2.11
  35  0.000  0.750  0.451-   3 2.11   5 2.11   6 2.11  13 2.11  22 2.11   7 2.12
  36  0.250  0.000  0.451-   4 2.11   5 2.11   6 2.11  14 2.11  21 2.11   8 2.12
  37  0.000  0.000  0.352-   5 2.11   4 2.11   3 2.11  11 2.11  20 2.11
  38  0.250  0.750  0.352-   6 2.11   4 2.11   3 2.11  12 2.11  19 2.11
  39  0.000  0.750  0.651-   9 2.11  10 2.11  26 2.11  17 2.11   7 2.15
  40  0.250  0.000  0.651-   9 2.11  10 2.11  18 2.11  25 2.11   8 2.15
  41  0.000  0.000  0.550-   9 2.11   8 2.11   7 2.11  15 2.11  24 2.11   5 2.12
  42  0.250  0.750  0.550-  10 2.11   8 2.11   7 2.11  16 2.11  23 2.11   6 2.12
  43  0.000  0.250  0.451-  11 2.11   5 2.11  13 2.11  14 2.11  30 2.11  15 2.12
  44  0.250  0.500  0.451-  12 2.11   6 2.11  13 2.11  14 2.11  29 2.11  16 2.13
  45  0.000  0.500  0.352-  13 2.11  11 2.11  12 2.11   3 2.11  28 2.11
  46  0.250  0.250  0.352-  14 2.11  11 2.11  12 2.11   4 2.11  27 2.11
  47  0.000  0.250  0.651-   9 2.11  18 2.11  34 2.11  17 2.11  15 2.15
  48  0.249  0.500  0.651-  17 2.10  10 2.11  18 2.11  33 2.12  16 2.15
  49  0.000  0.500  0.550-  17 2.11  15 2.11   7 2.11  16 2.11  32 2.11  13 2.12
  50  0.250  0.250  0.550-  18 2.11  15 2.11   8 2.11  16 2.11  31 2.11  14 2.12
  51  0.500  0.750  0.451-  19 2.11   6 2.11  21 2.11  22 2.11  29 2.11  23 2.13
  52  0.750  0.000  0.451-  20 2.11   5 2.11  21 2.11  22 2.11  30 2.11  24 2.12
  53  0.500  0.000  0.352-  21 2.11  19 2.11  20 2.11   4 2.11  27 2.11
  54  0.750  0.750  0.352-  22 2.11  19 2.11  20 2.11   3 2.11  28 2.11
  55  0.500  0.751  0.651-  25 2.10  10 2.11  26 2.11  33 2.12  23 2.15
  56  0.750  0.000  0.651-   9 2.11  26 2.11  34 2.11  25 2.11  24 2.15
  57  0.500  0.000  0.550-  25 2.11  24 2.11   8 2.11  23 2.11  31 2.11  21 2.12
  58  0.750  0.750  0.550-  26 2.11  24 2.11   7 2.11  32 2.11  23 2.11  22 2.12
  59  0.500  0.250  0.451-  27 2.11  21 2.11  14 2.11  29 2.11  30 2.11  31 2.13
  60  0.750  0.500  0.451-  28 2.11  22 2.11  13 2.11  29 2.11  30 2.11  32 2.13
  61  0.500  0.500  0.352-  29 2.11  19 2.11  27 2.11  28 2.11  12 2.11
  62  0.750  0.250  0.352-  30 2.11  20 2.11  27 2.11  28 2.11  11 2.11
  63  0.500  0.249  0.651-  25 2.10  18 2.11  34 2.11  33 2.12  31 2.15
  64  0.751  0.500  0.651-  17 2.10  26 2.11  34 2.11  33 2.12  32 2.15
  65  0.500  0.500  0.550-  16 2.11  23 2.11  31 2.11  32 2.11  29 2.13  33 2.14
  66  0.750  0.250  0.550-  34 2.11  24 2.11  15 2.11  32 2.11  31 2.11  30 2.12

  LATTYP: Found a simple tetragonal cell.
 ALAT       =     8.4409846542
 C/A-ratio  =     2.5270438657
  
  Lattice vectors:
  
 A1 = (   8.4409846542,   0.0000000000,   0.0000000000)
 A2 = (   0.0000000000,   8.4409846542,   0.0000000000)
 A3 = (   0.0000000000,   0.0000000000,  21.3307384906)


Analysis of symmetry for initial positions (statically):
=====================================================================
 Subroutine PRICEL returns:
 Original cell was already a primitive cell.
 

 Routine SETGRP: Setting up the symmetry group for a 
 simple tetragonal supercell.


 Subroutine GETGRP returns: Found  8 space group operations
 (whereof  8 operations were pure point group operations)
 out of a pool of 16 trial point group operations.


The static configuration has the point symmetry C_4v.


Analysis of symmetry for dynamics (positions and initial velocities):
=====================================================================
 Subroutine PRICEL returns:
 Original cell was already a primitive cell.
 

 Routine SETGRP: Setting up the symmetry group for a 
 simple tetragonal supercell.


 Subroutine GETGRP returns: Found  8 space group operations
 (whereof  8 operations were pure point group operations)
 out of a pool of 16 trial point group operations.


The dynamic configuration has the point symmetry C_4v.


 Subroutine INISYM returns: Found  8 space group operations
 (whereof  8 operations are pure point group operations),
 and found     1 'primitive' translations


----------------------------------------------------------------------------------------

                                     Primitive cell                                     

  volume of cell :    1519.8199

  direct lattice vectors                    reciprocal lattice vectors
     8.440984654  0.000000000  0.000000000     0.118469591  0.000000000  0.000000000
     0.000000000  8.440984654  0.000000000     0.000000000  0.118469591  0.000000000
     0.000000000  0.000000000 21.330738491     0.000000000  0.000000000  0.046880702

  length of vectors
     8.440984654  8.440984654 21.330738491     0.118469591  0.118469591  0.046880702

  position of ions in fractional coordinates (direct lattice)
     0.500000000  0.500000000  0.763130646
     0.500000000  0.500000000  0.816894364
     0.000000000  0.750000000  0.351605267
     0.250000000  0.000000000  0.351605267
     0.000000000  0.000000000  0.450535089
     0.250000000  0.750000000  0.450535089
     0.000000000  0.749939268  0.550083239
     0.250060732  0.000000000  0.550083239
     0.000000000  0.000000000  0.648745309
     0.249858327  0.750141673  0.648569547
     0.000000000  0.250000000  0.351605267
     0.250000000  0.500000000  0.351605267
     0.000000000  0.500000000  0.450535089
     0.250000000  0.250000000  0.450535089
     0.000000000  0.250060732  0.550083239
     0.250378379  0.500000000  0.550219524
     0.000000000  0.500000000  0.648615280
     0.249858327  0.249858327  0.648569547
     0.500000000  0.750000000  0.351605267
     0.750000000  0.000000000  0.351605267
     0.500000000  0.000000000  0.450535089
     0.750000000  0.750000000  0.450535089
     0.500000000  0.749621621  0.550219524
     0.749939268  0.000000000  0.550083239
     0.500000000  0.000000000  0.648615280
     0.750141673  0.750141673  0.648569547
     0.500000000  0.250000000  0.351605267
     0.750000000  0.500000000  0.351605267
     0.500000000  0.500000000  0.450535089
     0.750000000  0.250000000  0.450535089
     0.500000000  0.250378379  0.550219524
     0.749621621  0.500000000  0.550219524
     0.500000000  0.500000000  0.650616960
     0.750141673  0.249858327  0.648569547
     0.000000000  0.750000000  0.450535089
     0.250000000  0.000000000  0.450535089
     0.000000000  0.000000000  0.351605267
     0.250000000  0.750000000  0.351605267
     0.000000000  0.750218533  0.650979255
     0.249781467  0.000000000  0.650979255
     0.000000000  0.000000000  0.549809890
     0.249945770  0.750054230  0.549859113
     0.000000000  0.250000000  0.450535089
     0.250000000  0.500000000  0.450535089
     0.000000000  0.500000000  0.351605267
     0.250000000  0.250000000  0.351605267
     0.000000000  0.249781467  0.650979255
     0.248822710  0.500000000  0.650882872
     0.000000000  0.500000000  0.549762666
     0.249945770  0.249945770  0.549859113
     0.500000000  0.750000000  0.450535089
     0.750000000  0.000000000  0.450535089
     0.500000000  0.000000000  0.351605267
     0.750000000  0.750000000  0.351605267
     0.500000000  0.751177290  0.650882872
     0.750218533  0.000000000  0.650979255
     0.500000000  0.000000000  0.549762666
     0.750054230  0.750054230  0.549859113
     0.500000000  0.250000000  0.450535089
     0.750000000  0.500000000  0.450535089
     0.500000000  0.500000000  0.351605267
     0.750000000  0.250000000  0.351605267
     0.500000000  0.248822710  0.650882872
     0.751177290  0.500000000  0.650882872
     0.500000000  0.500000000  0.550231357
     0.750054230  0.249945770  0.549859113

  ion indices of the primitive-cell ions
   primitive index   ion index
                 1           1
                 2           2
                 3           3
                 4           4
                 5           5
                 6           6
                 7           7
                 8           8
                 9           9
                10          10
                11          11
                12          12
                13          13
                14          14
                15          15
                16          16
                17          17
                18          18
                19          19
                20          20
                21          21
                22          22
                23          23
                24          24
                25          25
                26          26
                27          27
                28          28
                29          29
                30          30
                31          31
                32          32
                33          33
                34          34
                35          35
                36          36
                37          37
                38          38
                39          39
                40          40
                41          41
                42          42
                43          43
                44          44
                45          45
                46          46
                47          47
                48          48
                49          49
                50          50
                51          51
                52          52
                53          53
                54          54
                55          55
                56          56
                57          57
                58          58
                59          59
                60          60
                61          61
                62          62
                63          63
                64          64
                65          65
                66          66

----------------------------------------------------------------------------------------



 KPOINTS: pymatgen v2020.8.13 with grid density = 

Automatic generation of k-mesh.
 Grid dimensions read from file:
 generate k-points for:    2    2    1

 Generating k-lattice:

  Cartesian coordinates                     Fractional coordinates (reciprocal lattice)
     0.059234796  0.000000000  0.000000000     0.500000000  0.000000000  0.000000000
     0.000000000  0.059234796  0.000000000     0.000000000  0.500000000  0.000000000
     0.000000000  0.000000000  0.046880702     0.000000000  0.000000000  1.000000000

  Length of vectors
     0.059234796  0.059234796  0.046880702

  Shift w.r.t. Gamma in fractional coordinates (k-lattice)
     0.000000000  0.000000000  0.000000000

 
 Subroutine IBZKPT returns following result:
 ===========================================
 
 Found      3 irreducible k-points:
 
 Following reciprocal coordinates:
            Coordinates               Weight
  0.000000  0.000000  0.000000      1.000000
  0.500000  0.000000  0.000000      2.000000
  0.500000  0.500000  0.000000      1.000000
 
 Following cartesian coordinates:
            Coordinates               Weight
  0.000000  0.000000  0.000000      1.000000
  0.059235  0.000000  0.000000      2.000000
  0.059235  0.059235  0.000000      1.000000
 


--------------------------------------------------------------------------------------------------------




 Dimension of arrays:
   k-points           NKPTS =      3   k-points in BZ     NKDIM =      3   number of bands    NBANDS=    320
   number of dos      NEDOS =    301   number of ions     NIONS =     66
   non local maximal  LDIM  =      5   non local SUM 2l+1 LMDIM =     13
   total plane-waves  NPLWV = 373248
   max r-space proj   IRMAX =      1   max aug-charges    IRDMAX=   5039
   dimension x,y,z NGX =    54 NGY =   54 NGZ =  128
   dimension x,y,z NGXF=   108 NGYF=  108 NGZF=  256
   support grid    NGXF=   108 NGYF=  108 NGZF=  256
   ions per type =               1   1  32  32
   NGX,Y,Z   is equivalent  to a cutoff of  10.64, 10.64,  9.98 a.u.
   NGXF,Y,Z  is equivalent  to a cutoff of  21.27, 21.27, 19.95 a.u.

 SYSTEM =  MgO-rocksalt                            
 POSCAR =   C  O Mg  O                             

 Startparameter for this run:
   NWRITE =      2    write-flag & timer
   PREC   = normal    normal or accurate (medium, high low for compatibility)
   ISTART =      0    job   : 0-new  1-cont  2-samecut
   ICHARG =      2    charge: 1-file 2-atom 10-const
   ISPIN  =      1    spin polarized calculation?
   LNONCOLLINEAR =      F non collinear calculations
   LSORBIT =      F    spin-orbit coupling
   INIWAV =      1    electr: 0-lowe 1-rand  2-diag
   LASPH  =      T    aspherical Exc in radial PAW
 Electronic Relaxation 1
   ENCUT  =  600.0 eV  44.10 Ry    6.64 a.u.  16.86 16.86 42.60*2*pi/ulx,y,z
   ENINI  =  600.0     initial cutoff
   ENAUG  =  758.8 eV  augmentation charge cutoff
   NELM   =    200;   NELMIN=  8; NELMDL= -5     # of ELM steps 
   EDIFF  = 0.1E-05   stopping-criterion for ELM
   LREAL  =      F    real-space projection
   NLSPLINE    = F    spline interpolate recip. space projectors
   LCOMPAT=      F    compatible to vasp.4.4
   GGA_COMPAT  = T    GGA compatible to vasp.4.4-vasp.4.6
   LMAXPAW     = -100 max onsite density
   LMAXMIX     =    2 max onsite mixed and CHGCAR
   VOSKOWN=      0    Vosko Wilk Nusair interpolation
   ROPT   =    0.00000   0.00000   0.00000   0.00000
 Ionic relaxation
   EDIFFG = -.1E-01   stopping-criterion for IOM
   NSW    =      0    number of steps for IOM
   NBLOCK =      1;   KBLOCK =      1    inner block; outer block 
   IBRION =     -1    ionic relax: 0-MD 1-quasi-New 2-CG
   NFREE  =      0    steps in history (QN), initial steepest desc. (CG)
   ISIF   =      2    stress and relaxation
   IWAVPR =     10    prediction:  0-non 1-charg 2-wave 3-comb
   ISYM   =      2    0-nonsym 1-usesym 2-fastsym
   LCORR  =      T    Harris-Foulkes like correction to forces

   POTIM  = 0.5000    time-step for ionic-motion
   TEIN   =    0.0    initial temperature
   TEBEG  =    0.0;   TEEND  =   0.0 temperature during run
   SMASS  =  -3.00    Nose mass-parameter (am)
   estimated Nose-frequenzy (Omega)   =  0.10E-29 period in steps = 0.13E+47 mass=  -0.163E-26a.u.
   SCALEE = 1.0000    scale energy and forces
   NPACO  =    256;   APACO  = 10.0  distance and # of slots for P.C.
   PSTRESS=    0.0 pullay stress

  Mass of Ions in am
   POMASS =  12.01 16.00 24.30 16.00
  Ionic Valenz
   ZVAL   =   4.00  6.00  8.00  6.00
  Atomic Wigner-Seitz radii
   RWIGS  =  -1.00 -1.00 -1.00 -1.00
  virtual crystal weights 
   VCA    =   1.00  1.00  1.00  1.00
   NELECT =     458.0000    total number of electrons
   NUPDOWN=      -1.0000    fix difference up-down

 DOS related values:
   EMIN   =  10.00;   EMAX   =-10.00  energy-range for DOS
   EFERMI =   0.00
   ISMEAR =     0;   SIGMA  =   0.05  broadening in eV -4-tet -1-fermi 0-gaus

 Electronic relaxation 2 (details)
   IALGO  =     58    algorithm
   LDIAG  =      T    sub-space diagonalisation (order eigenvalues)
   LSUBROT=      F    optimize rotation matrix (better conditioning)
   TURBO    =      0    0=normal 1=particle mesh
   IRESTART =      0    0=no restart 2=restart with 2 vectors
   NREBOOT  =      0    no. of reboots
   NMIN     =      0    reboot dimension
   EREF     =   0.00    reference energy to select bands
   IMIX   =      4    mixing-type and parameters
     AMIX     =   0.40;   BMIX     =  1.00
     AMIX_MAG =   1.60;   BMIX_MAG =  1.00
     AMIN     =   0.10
     WC   =   100.;   INIMIX=   1;  MIXPRE=   1;  MAXMIX= -45

 Intra band minimization:
   WEIMIN = 0.0000     energy-eigenvalue tresh-hold
   EBREAK =  0.78E-09  absolut break condition
   DEPER  =   0.30     relativ break condition  

   TIME   =   0.40     timestep for ELM

  volume/ion in A,a.u.               =      23.03       155.40
  Fermi-wavevector in a.u.,A,eV,Ry     =   1.097571  2.074108 16.390423  1.204662
  Thomas-Fermi vector in A             =   2.233933

 Write flags
   LWAVE        =      F    write WAVECAR
   LDOWNSAMPLE  =      F    k-point downsampling of WAVECAR
   LCHARG       =      F    write CHGCAR
   LVTOT        =      F    write LOCPOT, total local potential
   LVHAR        =      F    write LOCPOT, Hartree potential only
   LELF         =      F    write electronic localiz. function (ELF)
   LORBIT       =      0    0 simple, 1 ext, 2 COOP (PROOUT), +10 PAW based schemes


 Dipole corrections
   LMONO  =      F    monopole corrections only (constant potential shift)
   LDIPOL =      T    correct potential (dipole corrections)
   IDIPOL =      3    1-x, 2-y, 3-z, 4-all directions 
   EPSILON=  1.0000000 bulk dielectric constant

 Exchange correlation treatment:
   GGA     =    MK    GGA type
   LEXCH   =    43    internal setting for exchange type
   LIBXC   =     F    Libxc                    
   VOSKOWN =     0    Vosko Wilk Nusair interpolation
   LHFCALC =     F    Hartree Fock is set to
   LHFONE  =     F    Hartree Fock one center treatment
   AEXX    =    0.0000 exact exchange contribution

 vdW DFT:
   LUSE_VDW   =     T    switch on vdW DFT
   Zab_VDW    =******    correlation parameter
   PARAM1     =0.1234
   PARAM2     =0.7114
   PARAM3     =0.0000
   -- rVV10 --
   BPARAM     = 6.3000
   CPARAM     = 0.0093

 Linear response parameters
   LEPSILON=     F    determine dielectric tensor
   LRPA    =     F    only Hartree local field effects (RPA)
   LNABLA  =     F    use nabla operator in PAW spheres
   LVEL    =     F    velocity operator in full k-point grid
   CSHIFT  =0.1000    complex shift for real part using Kramers Kronig
   OMEGAMAX=  -1.0    maximum frequency
   DEG_THRESHOLD= 0.2000000E-02 threshold for treating states as degnerate
   RTIME   =   -0.100 relaxation time in fs
  (WPLASMAI=    0.000 imaginary part of plasma frequency in eV, 0.658/RTIME)
   DFIELD  = 0.0000000 0.0000000 0.0000000 field for delta impulse in time

  Optional k-point grid parameters
   LKPOINTS_OPT  =     F    use optional k-point grid
   KPOINTS_OPT_MODE=     1    mode for optional k-point grid

 Orbital magnetization related:
   ORBITALMAG=     F  switch on orbital magnetization
   LCHIMAG   =     F  perturbation theory with respect to B field
   DQ        =  0.001000  dq finite difference perturbation B field
   LLRAUG    =     F  two centre corrections for induced B field



--------------------------------------------------------------------------------------------------------


 Static calculation
 charge density and potential will be updated during run
 non-spin polarized calculation
 Conjugate gradient for all bands (Freysoldt, et al. PRB 79, 241103 (2009))
 preconditioned conjugated gradient                                        
 perform sub-space diagonalisation
    before iterative eigenvector-optimisation
 modified Broyden-mixing scheme, WC =      100.0
 initial mixing is a Kerker type mixing with AMIX =  0.4000 and BMIX =      1.0000
 Hartree-type preconditioning will be used
 using additional bands           91
 reciprocal scheme for non local part
 use partial core corrections
 no Harris-corrections to forces 
 use gradient corrections 
 use of overlap-Matrix (Vanderbilt PP)
 Gauss-broadening in eV      SIGMA  =   0.05


--------------------------------------------------------------------------------------------------------


  energy-cutoff  :      600.00
  volume of cell :     1519.82
      direct lattice vectors                 reciprocal lattice vectors
     8.440984654  0.000000000  0.000000000     0.118469591  0.000000000  0.000000000
     0.000000000  8.440984654  0.000000000     0.000000000  0.118469591  0.000000000
     0.000000000  0.000000000 21.330738491     0.000000000  0.000000000  0.046880702

  length of vectors
     8.440984654  8.440984654 21.330738491     0.118469591  0.118469591  0.046880702



 k-points in units of 2pi/SCALE and weight: pymatgen v2020.8.13 with grid density = 
   0.00000000  0.00000000  0.00000000       0.250
   0.05923480  0.00000000  0.00000000       0.500
   0.05923480  0.05923480  0.00000000       0.250

 k-points in reciprocal lattice and weights: pymatgen v2020.8.13 with grid density = 
   0.00000000  0.00000000  0.00000000       0.250
   0.50000000  0.00000000  0.00000000       0.500
   0.50000000  0.50000000  0.00000000       0.250

 position of ions in fractional coordinates (direct lattice) 
   0.50000000  0.50000000  0.76313065
   0.50000000  0.50000000  0.81689436
   0.00000000  0.75000000  0.35160527
   0.25000000  0.00000000  0.35160527
   0.00000000  0.00000000  0.45053509
   0.25000000  0.75000000  0.45053509
   0.00000000  0.74993927  0.55008324
   0.25006073  0.00000000  0.55008324
   0.00000000  0.00000000  0.64874531
   0.24985833  0.75014167  0.64856955
   0.00000000  0.25000000  0.35160527
   0.25000000  0.50000000  0.35160527
   0.00000000  0.50000000  0.45053509
   0.25000000  0.25000000  0.45053509
   0.00000000  0.25006073  0.55008324
   0.25037838  0.50000000  0.55021952
   0.00000000  0.50000000  0.64861528
   0.24985833  0.24985833  0.64856955
   0.50000000  0.75000000  0.35160527
   0.75000000  0.00000000  0.35160527
   0.50000000  0.00000000  0.45053509
   0.75000000  0.75000000  0.45053509
   0.50000000  0.74962162  0.55021952
   0.74993927  0.00000000  0.55008324
   0.50000000  0.00000000  0.64861528
   0.75014167  0.75014167  0.64856955
   0.50000000  0.25000000  0.35160527
   0.75000000  0.50000000  0.35160527
   0.50000000  0.50000000  0.45053509
   0.75000000  0.25000000  0.45053509
   0.50000000  0.25037838  0.55021952
   0.74962162  0.50000000  0.55021952
   0.50000000  0.50000000  0.65061696
   0.75014167  0.24985833  0.64856955
   0.00000000  0.75000000  0.45053509
   0.25000000  0.00000000  0.45053509
   0.00000000  0.00000000  0.35160527
   0.25000000  0.75000000  0.35160527
   0.00000000  0.75021853  0.65097926
   0.24978147  0.00000000  0.65097926
   0.00000000  0.00000000  0.54980989
   0.24994577  0.75005423  0.54985911
   0.00000000  0.25000000  0.45053509
   0.25000000  0.50000000  0.45053509
   0.00000000  0.50000000  0.35160527
   0.25000000  0.25000000  0.35160527
   0.00000000  0.24978147  0.65097926
   0.24882271  0.50000000  0.65088287
   0.00000000  0.50000000  0.54976267
   0.24994577  0.24994577  0.54985911
   0.50000000  0.75000000  0.45053509
   0.75000000  0.00000000  0.45053509
   0.50000000  0.00000000  0.35160527
   0.75000000  0.75000000  0.35160527
   0.50000000  0.75117729  0.65088287
   0.75021853  0.00000000  0.65097926
   0.50000000  0.00000000  0.54976267
   0.75005423  0.75005423  0.54985911
   0.50000000  0.25000000  0.45053509
   0.75000000  0.50000000  0.45053509
   0.50000000  0.50000000  0.35160527
   0.75000000  0.25000000  0.35160527
   0.50000000  0.24882271  0.65088287
   0.75117729  0.50000000  0.65088287
   0.50000000  0.50000000  0.55023136
   0.75005423  0.24994577  0.54985911

 position of ions in cartesian coordinates  (Angst):
   4.22049233  4.22049233 16.27814023
   4.22049233  4.22049233 17.42496005
   0.00000000  6.33073849  7.50000000
   2.11024616  0.00000000  7.50000000
   0.00000000  0.00000000  9.61024616
   2.11024616  6.33073849  9.61024616
   0.00000000  6.33022585 11.73368172
   2.11075880  0.00000000 11.73368172
   0.00000000  0.00000000 13.83821654
   2.10905031  6.33193435 13.83446740
   0.00000000  2.11024616  7.50000000
   2.11024616  4.22049233  7.50000000
   0.00000000  4.22049233  9.61024616
   2.11024616  2.11024616  9.61024616
   0.00000000  2.11075880 11.73368172
   2.11344006  4.22049233 11.73658877
   0.00000000  4.22049233 13.83544293
   2.10905031  2.10905031 13.83446740
   4.22049233  6.33073849  7.50000000
   6.33073849  0.00000000  7.50000000
   4.22049233  0.00000000  9.61024616
   6.33073849  6.33073849  9.61024616
   4.22049233  6.32754460 11.73658877
   6.33022585  0.00000000 11.73368172
   4.22049233  0.00000000 13.83544293
   6.33193435  6.33193435 13.83446740
   4.22049233  2.11024616  7.50000000
   6.33073849  4.22049233  7.50000000
   4.22049233  4.22049233  9.61024616
   6.33073849  2.11024616  9.61024616
   4.22049233  2.11344006 11.73658877
   6.32754460  4.22049233 11.73658877
   4.22049233  4.22049233 13.87814023
   6.33193435  2.10905031 13.83446740
   0.00000000  6.33073849  9.61024616
   2.11024616  0.00000000  9.61024616
   0.00000000  0.00000000  7.50000000
   2.11024616  6.33073849  7.50000000
   0.00000000  6.33258312 13.88586825
   2.10840153  0.00000000 13.88586825
   0.00000000  0.00000000 11.72785099
   2.10978841  6.33119624 11.72890095
   0.00000000  2.11024616  9.61024616
   2.11024616  4.22049233  9.61024616
   0.00000000  4.22049233  7.50000000
   2.11024616  2.11024616  7.50000000
   0.00000000  2.10840153 13.88586825
   2.10030867  4.22049233 13.88381232
   0.00000000  4.22049233 11.72684365
   2.10978841  2.10978841 11.72890095
   4.22049233  6.33073849  9.61024616
   6.33073849  0.00000000  9.61024616
   4.22049233  0.00000000  7.50000000
   6.33073849  6.33073849  7.50000000
   4.22049233  6.34067598 13.88381232
   6.33258312  0.00000000 13.88586825
   4.22049233  0.00000000 11.72684365
   6.33119624  6.33119624 11.72890095
   4.22049233  2.11024616  9.61024616
   6.33073849  4.22049233  9.61024616
   4.22049233  4.22049233  7.50000000
   6.33073849  2.11024616  7.50000000
   4.22049233  2.10030867 13.88381232
   6.34067598  4.22049233 13.88381232
   4.22049233  4.22049233 11.73684118
   6.33119624  2.10978841 11.72890095



--------------------------------------------------------------------------------------------------------


 k-point   1 :   0.0000 0.0000 0.0000  plane waves:   50745
 k-point   2 :   0.5000 0.0000 0.0000  plane waves:   50798
 k-point   3 :   0.5000 0.5000 0.0000  plane waves:   50752

 maximum and minimum number of plane-waves per node :     12720    12632

 maximum number of plane-waves:     50798
 maximum index in each direction: 
   IXMAX=   16   IYMAX=   16   IZMAX=   42
   IXMIN=  -17   IYMIN=  -17   IZMIN=  -42


 parallel 3D FFT for wavefunctions:
    minimum data exchange during FFTs selected (reduces bandwidth)
 parallel 3D FFT for charge:
    minimum data exchange during FFTs selected (reduces bandwidth)


 total amount of memory used by VASP MPI-rank0    78528. kBytes
=======================================================================

   base      :      30000. kBytes
   nonl-proj :      29343. kBytes
   fftplans  :       3857. kBytes
   grid      :       5885. kBytes
   one-center:        137. kBytes
   wavefun   :       9306. kBytes

     INWAV:  cpu time      0.0001: real time      0.0001
 Broyden mixing: mesh for mixing (old mesh)
   NGX = 33   NGY = 33   NGZ = 85
  (NGX  =108   NGY  =108   NGZ  =256)
  gives a total of  92565 points

 initial charge density was supplied:
 charge density of overlapping atoms calculated
 number of electron     458.0000000 magnetization 
 keeping initial charge density in first step


--------------------------------------------------------------------------------------------------------


 Maximum index for augmentation-charges          334 (set IRDMAX)


--------------------------------------------------------------------------------------------------------


 First call to EWALD:  gamma=   0.154
 Maximum number of real-space cells 4x 4x 2
 Maximum number of reciprocal cells 2x 2x 5

    FEWALD:  cpu time      0.0059: real time      0.0059


--------------------------------------- Iteration      1(   1)  ---------------------------------------


vdW kernel read from vdw_kernel.bindat
  0.0000  0.2424  0.5071  0.7962  1.1119  1.4567  1.8333  2.2446  2.6937  3.1842
  3.7199  4.3049  4.9438  5.6415  6.4036  7.2358  8.1446  9.1372 10.2212 11.4050
 12.6979 14.1099 15.6519 17.3360 19.1751 21.1837 23.3773 25.7729 28.3892 31.2465
 34.3669 37.7748 41.4965 45.5611 50.0000

    POTLOK:  cpu time      0.9524: real time      0.9562
    SETDIJ:  cpu time      0.2060: real time      0.2060
    TRIAL :  cpu time      5.4165: real time      5.5080
    CORREC:  cpu time      0.0015: real time      0.0015
    --------------------------------------------
      LOOP:  cpu time      6.5781: real time      6.7068

 eigenvalue-minimisations  :  2304
 total energy-change (2. order) : 0.4258239E+04  (-0.3061500E+05)
 number of electron     458.0000000 magnetization 
 augmentation part      458.0000000 magnetization 

 DIPCOR: dipole corrections for dipol
 direction  3 min pos     1,
 dipolmoment           0.000000      0.000000     -0.000244 electrons x Angstroem
 Tr[quadrupol]     -6318.707312

 energy correction for charged system         0.000000 eV
 dipol+quadrupol energy correction           -0.000000 eV
 added-field ion interaction          0.001963 eV  (added to PSCEN)


 Free energy of the ion-electron system (eV)
  ---------------------------------------------------
  alpha Z        PSCENC =       907.96606676
  Ewald energy   TEWEN  =    137238.72939893
  -Hartree energ DENC   =   -173337.30002166
  -exchange      EXHF   =         0.00000000
  -V(xc)+E(xc)   XCENC  =      1784.07850074
  PAW double counting   =     32339.39176546   -36140.44900584
  entropy T*S    EENTRO =        -0.02700553
  eigenvalues    EBANDS =     -6900.08288123
  atomic energy  EATOM  =     48365.93245855
  ---------------------------------------------------
  free energy    TOTEN  =      4258.23927617 eV

  energy without entropy =     4258.26628171  energy(sigma->0) =     4258.25277894


--------------------------------------------------------------------------------------------------------




--------------------------------------- Iteration      1(   2)  ---------------------------------------


    TRIAL :  cpu time      2.2520: real time      2.2524
    CORREC:  cpu time      0.0004: real time      0.0004
    --------------------------------------------
      LOOP:  cpu time      2.2580: real time      2.2677

 eigenvalue-minimisations  :  2304
 total energy-change (2. order) :-0.4282628E+04  (-0.4207933E+04)
 number of electron     458.0000000 magnetization 
 augmentation part      458.0000000 magnetization 

 DIPCOR: dipole corrections for dipol
 direction  3 min pos     1,
 dipolmoment           0.000000      0.000000     -0.000244 electrons x Angstroem
 Tr[quadrupol]     -6318.707312

 energy correction for charged system         0.000000 eV
 dipol+quadrupol energy correction           -0.000000 eV
 added-field ion interaction          0.001963 eV  (added to PSCEN)


 Free energy of the ion-electron system (eV)
  ---------------------------------------------------
  alpha Z        PSCENC =       907.96606676
  Ewald energy   TEWEN  =    137238.72939893
  -Hartree energ DENC   =   -173337.30002166
  -exchange      EXHF   =         0.00000000
  -V(xc)+E(xc)   XCENC  =      1784.07850074
  PAW double counting   =     32339.39176546   -36140.44900584
  entropy T*S    EENTRO =        -0.00000000
  eigenvalues    EBANDS =    -11182.73757462
  atomic energy  EATOM  =     48365.93245855
  ---------------------------------------------------
  free energy    TOTEN  =       -24.38841168 eV

  energy without entropy =      -24.38841168  energy(sigma->0) =      -24.38841168


--------------------------------------------------------------------------------------------------------




--------------------------------------- Iteration      1(   3)  ---------------------------------------


    TRIAL :  cpu time      2.3554: real time      2.3558
    CORREC:  cpu time      0.0003: real time      0.0003
    --------------------------------------------
      LOOP:  cpu time      2.3621: real time      2.3704

 eigenvalue-minimisations  :  2304
 total energy-change (2. order) :-0.3114102E+03  (-0.3093978E+03)
 number of electron     458.0000000 magnetization 
 augmentation part      458.0000000 magnetization 

 DIPCOR: dipole corrections for dipol
 direction  3 min pos     1,
 dipolmoment           0.000000      0.000000     -0.000244 electrons x Angstroem
 Tr[quadrupol]     -6318.707312

 energy correction for charged system         0.000000 eV
 dipol+quadrupol energy correction           -0.000000 eV
 added-field ion interaction          0.001963 eV  (added to PSCEN)


 Free energy of the ion-electron system (eV)
  ---------------------------------------------------
  alpha Z        PSCENC =       907.96606676
  Ewald energy   TEWEN  =    137238.72939893
  -Hartree energ DENC   =   -173337.30002166
  -exchange      EXHF   =         0.00000000
  -V(xc)+E(xc)   XCENC  =      1784.07850074
  PAW double counting   =     32339.39176546   -36140.44900584
  entropy T*S    EENTRO =        -0.00000000
  eigenvalues    EBANDS =    -11494.14775431
  atomic energy  EATOM  =     48365.93245855
  ---------------------------------------------------
  free energy    TOTEN  =      -335.79859137 eV

  energy without entropy =     -335.79859137  energy(sigma->0) =     -335.79859137


--------------------------------------------------------------------------------------------------------




--------------------------------------- Iteration      1(   4)  ---------------------------------------


    TRIAL :  cpu time      2.3606: real time      2.3611
    CORREC:  cpu time      0.0003: real time      0.0003
    --------------------------------------------
      LOOP:  cpu time      2.3648: real time      2.3756

 eigenvalue-minimisations  :  2368
 total energy-change (2. order) :-0.6031889E+01  (-0.6024355E+01)
 number of electron     458.0000000 magnetization 
 augmentation part      458.0000000 magnetization 

 DIPCOR: dipole corrections for dipol
 direction  3 min pos     1,
 dipolmoment           0.000000      0.000000     -0.000244 electrons x Angstroem
 Tr[quadrupol]     -6318.707312

 energy correction for charged system         0.000000 eV
 dipol+quadrupol energy correction           -0.000000 eV
 added-field ion interaction          0.001963 eV  (added to PSCEN)


 Free energy of the ion-electron system (eV)
  ---------------------------------------------------
  alpha Z        PSCENC =       907.96606676
  Ewald energy   TEWEN  =    137238.72939893
  -Hartree energ DENC   =   -173337.30002166
  -exchange      EXHF   =         0.00000000
  -V(xc)+E(xc)   XCENC  =      1784.07850074
  PAW double counting   =     32339.39176546   -36140.44900584
  entropy T*S    EENTRO =        -0.00000000
  eigenvalues    EBANDS =    -11500.17964296
  atomic energy  EATOM  =     48365.93245855
  ---------------------------------------------------
  free energy    TOTEN  =      -341.83048002 eV

  energy without entropy =     -341.83048002  energy(sigma->0) =     -341.83048002


--------------------------------------------------------------------------------------------------------




--------------------------------------- Iteration      1(   5)  ---------------------------------------


    TRIAL :  cpu time      2.1438: real time      2.1442
    CORREC:  cpu time      0.0003: real time      0.0003
    CHARGE:  cpu time      0.0742: real time      0.0744
    --------------------------------------------
      LOOP:  cpu time      2.2241: real time      2.2333

 eigenvalue-minimisations  :  2304
 total energy-change (2. order) :-0.7787635E-01  (-0.7787339E-01)
 number of electron     457.9999366 magnetization 
 augmentation part      159.5832314 magnetization 

 DIPCOR: dipole corrections for dipol
 direction  3 min pos     1,
 dipolmoment           0.000000      0.000000     -0.000244 electrons x Angstroem
 Tr[quadrupol]     -6318.707312

 energy correction for charged system         0.000000 eV
 dipol+quadrupol energy correction           -0.000000 eV
 added-field ion interaction          0.001963 eV  (added to PSCEN)


 Free energy of the ion-electron system (eV)
  ---------------------------------------------------
  alpha Z        PSCENC =       907.96606676
  Ewald energy   TEWEN  =    137238.72939893
  -Hartree energ DENC   =   -173337.30002166
  -exchange      EXHF   =         0.00000000
  -V(xc)+E(xc)   XCENC  =      1784.07850074
  PAW double counting   =     32339.39176546   -36140.44900584
  entropy T*S    EENTRO =        -0.00000000
  eigenvalues    EBANDS =    -11500.25751930
  atomic energy  EATOM  =     48365.93245855
  ---------------------------------------------------
  free energy    TOTEN  =      -341.90835637 eV

  energy without entropy =     -341.90835637  energy(sigma->0) =     -341.90835637


--------------------------------------------------------------------------------------------------------




--------------------------------------- Iteration      1(   6)  ---------------------------------------


    POTLOK:  cpu time      0.3294: real time      0.3295
    SETDIJ:  cpu time      0.2002: real time      0.2005
    TRIAL :  cpu time      0.6711: real time      0.6717
    CORREC:  cpu time      0.8387: real time      0.8389
    CHARGE:  cpu time      0.0554: real time      0.0554
    --------------------------------------------
      LOOP:  cpu time      2.1087: real time      2.1100

 eigenvalue-minimisations  :     0
 total energy-change (2. order) : 0.1773182E+03  (-0.9801741E+02)
 number of electron     457.9999257 magnetization 
 augmentation part      156.7544263 magnetization 

 DIPCOR: dipole corrections for dipol
 direction  3 min pos     1,
 dipolmoment           0.000000      0.000000      0.182749 electrons x Angstroem
 Tr[quadrupol]     -6354.353938

 energy correction for charged system         0.000000 eV
 dipol+quadrupol energy correction           -0.001988 eV
 added-field ion interaction         -1.470821 eV  (added to PSCEN)


 Free energy of the ion-electron system (eV)
  ---------------------------------------------------
  alpha Z        PSCENC =       904.45044225
  Ewald energy   TEWEN  =    137238.72939893
  -Hartree energ DENC   =   -177201.56363992
  -exchange      EXHF   =         0.00000000
  -V(xc)+E(xc)   XCENC  =      1908.23943523
  PAW double counting   =     36945.21772855   -40693.12093930
  entropy T*S    EENTRO =        -0.00000000
  eigenvalues    EBANDS =     -7632.47506253
  atomic energy  EATOM  =     48365.93245855
  ---------------------------------------------------
  free energy    TOTEN  =      -164.59017824 eV

  energy without entropy =     -164.59017824  energy(sigma->0) =     -164.59017824


--------------------------------------------------------------------------------------------------------




--------------------------------------- Iteration      1(   7)  ---------------------------------------


    POTLOK:  cpu time      0.3148: real time      0.3153
    SETDIJ:  cpu time      0.2094: real time      0.2094
    TRIAL :  cpu time      0.6013: real time      0.6013
    CORREC:  cpu time      0.8254: real time      0.8255
    CHARGE:  cpu time      0.0556: real time      0.0556
    --------------------------------------------
      LOOP:  cpu time      2.0118: real time      2.0216

 eigenvalue-minimisations  :     0
 total energy-change (2. order) :-0.9848896E+02  (-0.7062657E+01)
 number of electron     457.9999247 magnetization 
 augmentation part      154.8193780 magnetization 

 DIPCOR: dipole corrections for dipol
 direction  3 min pos     1,
 dipolmoment           0.000000      0.000000      0.167370 electrons x Angstroem
 Tr[quadrupol]     -6360.253456

 energy correction for charged system         0.000000 eV
 dipol+quadrupol energy correction           -0.001668 eV
 added-field ion interaction         -1.347050 eV  (added to PSCEN)


 Free energy of the ion-electron system (eV)
  ---------------------------------------------------
  alpha Z        PSCENC =       906.22498568
  Ewald energy   TEWEN  =    137238.72939893
  -Hartree energ DENC   =   -175336.83120708
  -exchange      EXHF   =         0.00000000
  -V(xc)+E(xc)   XCENC  =      1839.05486969
  PAW double counting   =     35821.43860625   -39643.70709853
  entropy T*S    EENTRO =        -0.00000000
  eigenvalues    EBANDS =     -9453.92115659
  atomic energy  EATOM  =     48365.93245855
  ---------------------------------------------------
  free energy    TOTEN  =      -263.07914308 eV

  energy without entropy =     -263.07914308  energy(sigma->0) =     -263.07914308


--------------------------------------------------------------------------------------------------------




--------------------------------------- Iteration      1(   8)  ---------------------------------------


    POTLOK:  cpu time      0.3089: real time      0.3092
    SETDIJ:  cpu time      0.2187: real time      0.2187
    TRIAL :  cpu time      0.6016: real time      0.6017
    CORREC:  cpu time      0.8213: real time      0.8215
    CHARGE:  cpu time      0.0547: real time      0.0547
    --------------------------------------------
      LOOP:  cpu time      2.0198: real time      2.0205

 eigenvalue-minimisations  :     0
 total energy-change (2. order) :-0.7078232E+01  (-0.4593417E+01)
 number of electron     457.9999230 magnetization 
 augmentation part      154.9442904 magnetization 

 DIPCOR: dipole corrections for dipol
 direction  3 min pos     1,
 dipolmoment           0.000000      0.000000      0.115451 electrons x Angstroem
 Tr[quadrupol]     -6358.365892

 energy correction for charged system         0.000000 eV
 dipol+quadrupol energy correction           -0.000793 eV
 added-field ion interaction         -0.929184 eV  (added to PSCEN)


 Free energy of the ion-electron system (eV)
  ---------------------------------------------------
  alpha Z        PSCENC =       906.74891681
  Ewald energy   TEWEN  =    137238.72939893
  -Hartree energ DENC   =   -175224.72085022
  -exchange      EXHF   =         0.00000000
  -V(xc)+E(xc)   XCENC  =      1829.01702405
  PAW double counting   =     35695.81219482   -39446.04078923
  entropy T*S    EENTRO =        -0.00000000
  eigenvalues    EBANDS =     -9635.63572909
  atomic energy  EATOM  =     48365.93245855
  ---------------------------------------------------
  free energy    TOTEN  =      -270.15737539 eV

  energy without entropy =     -270.15737539  energy(sigma->0) =     -270.15737539


--------------------------------------------------------------------------------------------------------




--------------------------------------- Iteration      1(   9)  ---------------------------------------


    POTLOK:  cpu time      0.3175: real time      0.3178
    SETDIJ:  cpu time      0.2159: real time      0.2159
    TRIAL :  cpu time      0.6023: real time      0.6023
    CORREC:  cpu time      0.8232: real time      0.8234
    CHARGE:  cpu time      0.0545: real time      0.0546
    --------------------------------------------
      LOOP:  cpu time      2.0180: real time      2.0286

 eigenvalue-minimisations  :     0
 total energy-change (2. order) :-0.4488146E+01  (-0.1752600E+01)
 number of electron     457.9999230 magnetization 
 augmentation part      154.9579124 magnetization 

 DIPCOR: dipole corrections for dipol
 direction  3 min pos     1,
 dipolmoment           0.000000      0.000000      0.152485 electrons x Angstroem
 Tr[quadrupol]     -6349.730693

 energy correction for charged system         0.000000 eV
 dipol+quadrupol energy correction           -0.001384 eV
 added-field ion interaction         -1.227245 eV  (added to PSCEN)


 Free energy of the ion-electron system (eV)
  ---------------------------------------------------
  alpha Z        PSCENC =       907.15127744
  Ewald energy   TEWEN  =    137238.72939893
  -Hartree energ DENC   =   -175075.61123197
  -exchange      EXHF   =         0.00000000
  -V(xc)+E(xc)   XCENC  =      1828.36902827
  PAW double counting   =     35606.27066747   -39394.68686395
  entropy T*S    EENTRO =        -0.00000000
  eigenvalues    EBANDS =     -9750.80025568
  atomic energy  EATOM  =     48365.93245855
  ---------------------------------------------------
  free energy    TOTEN  =      -274.64552093 eV

  energy without entropy =     -274.64552093  energy(sigma->0) =     -274.64552093


--------------------------------------------------------------------------------------------------------




--------------------------------------- Iteration      1(  10)  ---------------------------------------


    POTLOK:  cpu time      0.3127: real time      0.3130
    SETDIJ:  cpu time      0.2122: real time      0.2122
    TRIAL :  cpu time      0.6007: real time      0.6007
    CORREC:  cpu time      0.8241: real time      0.8243
    CHARGE:  cpu time      0.0547: real time      0.0547
    --------------------------------------------
      LOOP:  cpu time      2.0186: real time      2.0192

 eigenvalue-minimisations  :     0
 total energy-change (2. order) :-0.1778513E+01  (-0.5979933E+00)
 number of electron     457.9999236 magnetization 
 augmentation part      154.9247254 magnetization 

 DIPCOR: dipole corrections for dipol
 direction  3 min pos     1,
 dipolmoment           0.000000      0.000000      0.166565 electrons x Angstroem
 Tr[quadrupol]     -6349.294419

 energy correction for charged system         0.000000 eV
 dipol+quadrupol energy correction           -0.001652 eV
 added-field ion interaction         -1.340569 eV  (added to PSCEN)


 Free energy of the ion-electron system (eV)
  ---------------------------------------------------
  alpha Z        PSCENC =       906.83609315
  Ewald energy   TEWEN  =    137238.72939893
  -Hartree energ DENC   =   -174883.94799627
  -exchange      EXHF   =         0.00000000
  -V(xc)+E(xc)   XCENC  =      1826.65934800
  PAW double counting   =     35501.87977703   -39297.86303637
  entropy T*S    EENTRO =        -0.00000000
  eigenvalues    EBANDS =     -9934.65007674
  atomic energy  EATOM  =     48365.93245855
  ---------------------------------------------------
  free energy    TOTEN  =      -276.42403372 eV

  energy without entropy =     -276.42403372  energy(sigma->0) =     -276.42403372


--------------------------------------------------------------------------------------------------------




--------------------------------------- Iteration      1(  11)  ---------------------------------------


    POTLOK:  cpu time      0.3156: real time      0.3159
    SETDIJ:  cpu time      0.2062: real time      0.2062
    TRIAL :  cpu time      0.6007: real time      0.6008
    CORREC:  cpu time      0.8299: real time      0.8301
    CHARGE:  cpu time      0.0549: real time      0.0549
    --------------------------------------------
      LOOP:  cpu time      2.0118: real time      2.0230

 eigenvalue-minimisations  :     0
 total energy-change (2. order) :-0.5991888E+00  (-0.2181962E+00)
 number of electron     457.9999241 magnetization 
 augmentation part      155.0308780 magnetization 

 DIPCOR: dipole corrections for dipol
 direction  3 min pos     1,
 dipolmoment           0.000000      0.000000      0.148679 electrons x Angstroem
 Tr[quadrupol]     -6350.360867

 energy correction for charged system         0.000000 eV
 dipol+quadrupol energy correction           -0.001316 eV
 added-field ion interaction         -1.196616 eV  (added to PSCEN)


 Free energy of the ion-electron system (eV)
  ---------------------------------------------------
  alpha Z        PSCENC =       906.65278320
  Ewald energy   TEWEN  =    137238.72939893
  -Hartree energ DENC   =   -174824.61021110
  -exchange      EXHF   =         0.00000000
  -V(xc)+E(xc)   XCENC  =      1825.77963720
  PAW double counting   =     35450.70513494   -39238.35063112
  entropy T*S    EENTRO =        -0.00000000
  eigenvalues    EBANDS =    -10001.86179309
  atomic energy  EATOM  =     48365.93245855
  ---------------------------------------------------
  free energy    TOTEN  =      -277.02322249 eV

  energy without entropy =     -277.02322249  energy(sigma->0) =     -277.02322249


--------------------------------------------------------------------------------------------------------




--------------------------------------- Iteration      1(  12)  ---------------------------------------


    POTLOK:  cpu time      0.3164: real time      0.3167
    SETDIJ:  cpu time      0.2103: real time      0.2108
    TRIAL :  cpu time      0.6014: real time      0.6014
    CORREC:  cpu time      0.8293: real time      0.8295
    CHARGE:  cpu time      0.0550: real time      0.0550
    --------------------------------------------
      LOOP:  cpu time      2.0184: real time      2.0281

 eigenvalue-minimisations  :     0
 total energy-change (2. order) :-0.2181759E+00  (-0.7981611E-01)
 number of electron     457.9999242 magnetization 
 augmentation part      155.1396331 magnetization 

 DIPCOR: dipole corrections for dipol
 direction  3 min pos     1,
 dipolmoment           0.000000      0.000000      0.136845 electrons x Angstroem
 Tr[quadrupol]     -6351.179209

 energy correction for charged system         0.000000 eV
 dipol+quadrupol energy correction           -0.001115 eV
 added-field ion interaction         -1.101374 eV  (added to PSCEN)


 Free energy of the ion-electron system (eV)
  ---------------------------------------------------
  alpha Z        PSCENC =       906.76258349
  Ewald energy   TEWEN  =    137238.72939893
  -Hartree energ DENC   =   -174857.92664212
  -exchange      EXHF   =         0.00000000
  -V(xc)+E(xc)   XCENC  =      1826.15394052
  PAW double counting   =     35443.41358666   -39229.51513259
  entropy T*S    EENTRO =        -0.00000000
  eigenvalues    EBANDS =     -9970.79159186
  atomic energy  EATOM  =     48365.93245855
  ---------------------------------------------------
  free energy    TOTEN  =      -277.24139842 eV

  energy without entropy =     -277.24139842  energy(sigma->0) =     -277.24139842


--------------------------------------------------------------------------------------------------------




--------------------------------------- Iteration      1(  13)  ---------------------------------------


    POTLOK:  cpu time      0.3136: real time      0.3139
    SETDIJ:  cpu time      0.2170: real time      0.2170
    TRIAL :  cpu time      0.6013: real time      0.6014
    CORREC:  cpu time      0.8184: real time      0.8186
    CHARGE:  cpu time      0.0546: real time      0.0546
    --------------------------------------------
      LOOP:  cpu time      2.0103: real time      2.0203

 eigenvalue-minimisations  :     0
 total energy-change (2. order) :-0.7983190E-01  (-0.3789330E-01)
 number of electron     457.9999242 magnetization 
 augmentation part      155.1773446 magnetization 

 DIPCOR: dipole corrections for dipol
 direction  3 min pos     1,
 dipolmoment           0.000000      0.000000      0.133457 electrons x Angstroem
 Tr[quadrupol]     -6351.632928

 energy correction for charged system         0.000000 eV
 dipol+quadrupol energy correction           -0.001060 eV
 added-field ion interaction         -1.074106 eV  (added to PSCEN)


 Free energy of the ion-electron system (eV)
  ---------------------------------------------------
  alpha Z        PSCENC =       906.86446699
  Ewald energy   TEWEN  =    137238.72939893
  -Hartree energ DENC   =   -174891.58398978
  -exchange      EXHF   =         0.00000000
  -V(xc)+E(xc)   XCENC  =      1826.49127729
  PAW double counting   =     35444.98177623   -39234.10027965
  entropy T*S    EENTRO =        -0.00000000
  eigenvalues    EBANDS =     -9934.63633888
  atomic energy  EATOM  =     48365.93245855
  ---------------------------------------------------
  free energy    TOTEN  =      -277.32123032 eV

  energy without entropy =     -277.32123032  energy(sigma->0) =     -277.32123032


--------------------------------------------------------------------------------------------------------




--------------------------------------- Iteration      1(  14)  ---------------------------------------


    POTLOK:  cpu time      0.3150: real time      0.3154
    SETDIJ:  cpu time      0.2120: real time      0.2120
    TRIAL :  cpu time      0.5997: real time      0.5997
    CORREC:  cpu time      0.8279: real time      0.8281
    CHARGE:  cpu time      0.0548: real time      0.0549
    --------------------------------------------
      LOOP:  cpu time      2.0155: real time      2.0250

 eigenvalue-minimisations  :     0
 total energy-change (2. order) :-0.3792240E-01  (-0.1805109E-01)
 number of electron     457.9999242 magnetization 
 augmentation part      155.1601957 magnetization 

 DIPCOR: dipole corrections for dipol
 direction  3 min pos     1,
 dipolmoment           0.000000      0.000000      0.133027 electrons x Angstroem
 Tr[quadrupol]     -6351.972565

 energy correction for charged system         0.000000 eV
 dipol+quadrupol energy correction           -0.001053 eV
 added-field ion interaction         -1.070647 eV  (added to PSCEN)


 Free energy of the ion-electron system (eV)
  ---------------------------------------------------
  alpha Z        PSCENC =       906.89219309
  Ewald energy   TEWEN  =    137238.72939893
  -Hartree energ DENC   =   -174906.34886658
  -exchange      EXHF   =         0.00000000
  -V(xc)+E(xc)   XCENC  =      1826.50173011
  PAW double counting   =     35445.48042299   -39236.29298803
  entropy T*S    EENTRO =        -0.00000000
  eigenvalues    EBANDS =     -9918.25350179
  atomic energy  EATOM  =     48365.93245855
  ---------------------------------------------------
  free energy    TOTEN  =      -277.35915272 eV

  energy without entropy =     -277.35915272  energy(sigma->0) =     -277.35915272


--------------------------------------------------------------------------------------------------------




[...]
    269       6.6011      0.00000
    270       6.6011      0.00000
    271       6.6013      0.00000
    272       6.9103      0.00000
    273       7.1726      0.00000
    274       7.1726      0.00000
    275       7.2758      0.00000
    276       7.5382      0.00000
    277       7.5382      0.00000
    278       7.5475      0.00000
    279       7.6292      0.00000
    280       7.7874      0.00000
    281       7.7913      0.00000
    282       7.7913      0.00000
    283       7.8013      0.00000
    284       7.8059      0.00000
    285       7.8070      0.00000
    286       7.8144      0.00000
    287       7.8145      0.00000
    288       8.0522      0.00000
    289       8.0523      0.00000
    290       8.0585      0.00000
    291       8.2328      0.00000
    292       8.2629      0.00000
    293       8.2900      0.00000
    294       8.2989      0.00000
    295       8.3326      0.00000
    296       8.3451      0.00000
    297       8.3485      0.00000
    298       8.3504      0.00000
    299       8.3747      0.00000
    300       8.6112      0.00000
    301       8.7090      0.00000
    302       8.7333      0.00000
    303       8.7354      0.00000
    304       8.8802      0.00000
    305       9.0583      0.00000
    306       9.1109      0.00000
    307       9.1656      0.00000
    308       9.2475      0.00000
    309       9.2779      0.00000
    310       9.3539      0.00000
    311       9.3696      0.00000
    312       9.5350      0.00000
    313       9.6016      0.00000
    314       9.6248      0.00000
    315       9.6598      0.00000
    316       9.6685      0.00000
    317      10.0371      0.00000
    318      10.0731      0.00000
    319      10.1667      0.00000
    320      10.1769      0.00000


--------------------------------------------------------------------------------------------------------


 soft charge-density along one line, spin component           1
         0         1         2         3         4         5         6         7         8         9
 total charge-density along one line

 pseudopotential strength for first ion, spin component:           1
 10.244  13.622   0.000   0.025   0.000  -0.000  -0.075  -0.000
 13.622  18.113   0.000   0.032   0.000  -0.000  -0.098  -0.000
  0.000   0.000  -4.418  -0.000  -0.000   8.672   0.000   0.000
  0.025   0.032  -0.000  -4.423  -0.000   0.000   8.658  -0.000
  0.000   0.000  -0.000  -0.000  -4.418   0.000  -0.000   8.672
 -0.000  -0.000   8.672   0.000   0.000 -19.164  -0.000  -0.000
 -0.075  -0.098   0.000   8.658  -0.000  -0.000 -19.085   0.000
 -0.000  -0.000   0.000  -0.000   8.672  -0.000   0.000 -19.164
 total augmentation occupancy for first ion, spin component:           1
  7.090  -3.208   0.000   2.042   0.000   0.000   0.368   0.000
 -3.208   1.853   0.000  -1.559   0.000   0.000  -0.221   0.000
  0.000   0.000   0.831   0.000   0.000   0.057   0.000  -0.000
  2.042  -1.559   0.000   2.219   0.000   0.000   0.204   0.000
  0.000   0.000   0.000   0.000   0.831   0.000   0.000   0.057
  0.000   0.000   0.057   0.000   0.000   0.004   0.000   0.000
  0.368  -0.221   0.000   0.204   0.000   0.000   0.028   0.000
  0.000   0.000  -0.000   0.000   0.057   0.000   0.000   0.004


------------------------ aborting loop because EDIFF is reached ----------------------------------------


    FORLOC:  cpu time      0.0040: real time      0.0040
    FORNL :  cpu time      0.4188: real time      0.4191
    STRESS:  cpu time      1.3376: real time      1.3382
    FORCOR:  cpu time      0.3109: real time      0.3110
    OFIELD:  cpu time      0.0001: real time      0.0001

  FORCE on cell =-STRESS in cart. coord.  units (eV):
  Direction    XX          YY          ZZ          XY          YZ          ZX
  --------------------------------------------------------------------------------------
  Alpha Z   907.96410   907.96410   907.96410
  Ewald  157739.09172157739.09172************     0.00000     0.00000    -0.00000
  Hartree168112.17061168112.17061************    -0.00000    -0.00000    -0.00000
  E(xc)   -2499.95823 -2499.95823 -2498.96893    -0.00000    -0.00000     0.00000
  Local  ************************335443.77821    -0.00000    -0.00000    -0.00000
  n-local -2850.72817 -2851.54358 -2880.89140    -0.00000     0.00000     0.00000
  augment  1058.06972  1058.06972  1048.01790     0.00000    -0.00000    -0.00000
  Kinetic  7494.86284  7497.43304  7515.58523    -0.00001    -0.00000    -0.00000
  Fock        0.00000     0.00000     0.00000     0.00000     0.00000     0.00000
  -------------------------------------------------------------------------------------
  Total     -29.99462   -29.99462    -4.72853     0.00000     0.00000     0.00000
  in kB     -31.62000   -31.62000    -4.98476     0.00000     0.00000     0.00000
  external pressure =      -22.74 kB  Pullay stress =        0.00 kB


 VOLUME and BASIS-vectors are now :
 -----------------------------------------------------------------------------
  energy-cutoff  :      600.00
  volume of cell :     1519.82
      direct lattice vectors                 reciprocal lattice vectors
     8.440984654  0.000000000  0.000000000     0.118469591  0.000000000  0.000000000
     0.000000000  8.440984654  0.000000000     0.000000000  0.118469591  0.000000000
     0.000000000  0.000000000 21.330738491     0.000000000  0.000000000  0.046880702

  length of vectors
     8.440984654  8.440984654 21.330738491     0.118469591  0.118469591  0.046880702


 FORCES acting on ions:
    Electron-Ion                     Ewald-Force                    Non-Local-Force
 -----------------------------------------------------------------------------------------------
   0.116E-12 0.633E-12 -.846E+03   0.222E-14 0.400E-14 0.820E+03   0.000E+00 0.000E+00 0.270E+02
   0.416E-12 0.350E-11 -.146E+04   0.977E-14 0.666E-14 0.152E+04   0.000E+00 0.000E+00 -.604E+02
   -.109E-13 -.133E+00 0.208E+04   0.560E-13 0.133E+00 -.207E+04   0.000E+00 -.141E-03 -.679E+01
   0.133E+00 -.375E-12 0.208E+04   -.133E+00 0.671E-13 -.207E+04   0.141E-03 0.000E+00 -.679E+01
   -.542E-13 -.263E-12 0.714E+03   -.150E-10 0.150E-10 -.714E+03   0.000E+00 0.000E+00 0.473E+00
   0.499E+00 -.499E+00 0.715E+03   -.495E+00 0.495E+00 -.715E+03   -.266E-02 0.266E-02 0.498E+00
   -.478E-13 -.292E+01 -.642E+03   0.157E-11 0.291E+01 0.642E+03   -.529E-22 0.172E-01 -.127E+00
   0.292E+01 0.175E-12 -.642E+03   -.291E+01 -.151E-11 0.642E+03   -.172E-01 -.265E-22 -.127E+00
   -.452E-13 -.626E-12 -.200E+04   0.444E-12 -.416E-12 0.200E+04   -.124E-22 0.000E+00 0.570E+01
   0.186E+02 -.186E+02 -.198E+04   -.187E+02 0.187E+02 0.198E+04   0.825E-01 -.825E-01 0.579E+01
   -.212E-13 0.133E+00 0.208E+04   -.277E-12 -.133E+00 -.207E+04   0.000E+00 0.141E-03 -.679E+01
   0.129E+00 0.465E-12 0.208E+04   -.127E+00 0.131E-10 -.207E+04   -.180E-02 -.529E-22 -.679E+01
   -.557E-13 0.721E-12 0.715E+03   -.165E-10 0.000E+00 -.715E+03   0.000E+00 0.000E+00 0.435E+00
   0.499E+00 0.499E+00 0.715E+03   -.495E+00 -.495E+00 -.715E+03   -.266E-02 -.266E-02 0.498E+00
   -.676E-13 0.292E+01 -.642E+03   0.304E-11 -.291E+01 0.642E+03   0.000E+00 -.172E-01 -.127E+00
   0.432E+01 0.119E-11 -.635E+03   -.425E+01 0.178E-14 0.635E+03   -.772E-01 0.265E-22 -.236E+00
   -.271E-13 0.188E-11 -.199E+04   -.355E-13 -.995E-13 0.198E+04   0.000E+00 0.000E+00 0.571E+01
   0.186E+02 0.186E+02 -.198E+04   -.187E+02 -.187E+02 0.198E+04   0.825E-01 0.825E-01 0.579E+01
   0.890E-12 -.129E+00 0.208E+04   -.129E-10 0.127E+00 -.207E+04   0.000E+00 0.180E-02 -.679E+01
   -.133E+00 -.377E-12 0.208E+04   0.133E+00 0.471E-13 -.207E+04   -.141E-03 0.000E+00 -.679E+01
   0.798E-12 -.323E-12 0.715E+03   0.145E-11 0.150E-10 -.715E+03   0.000E+00 0.000E+00 0.435E+00
   -.499E+00 -.499E+00 0.715E+03   0.495E+00 0.495E+00 -.715E+03   0.266E-02 0.266E-02 0.498E+00
   0.836E-12 -.432E+01 -.635E+03   -.141E-11 0.425E+01 0.635E+03   -.529E-22 0.772E-01 -.236E+00
   -.292E+01 0.172E-12 -.642E+03   0.291E+01 -.156E-11 0.642E+03   0.172E-01 0.000E+00 -.127E+00
   0.891E-12 -.129E-11 -.199E+04   0.782E-13 -.355E-14 0.198E+04   0.000E+00 0.000E+00 0.571E+01
   -.186E+02 -.186E+02 -.198E+04   0.187E+02 0.187E+02 0.198E+04   -.825E-01 -.825E-01 0.579E+01
   0.895E-12 0.129E+00 0.208E+04   -.131E-10 -.127E+00 -.207E+04   0.265E-22 -.180E-02 -.679E+01
   -.129E+00 0.000E+00 0.208E+04   0.127E+00 0.131E-10 -.207E+04   0.180E-02 0.265E-22 -.679E+01
   0.838E-12 0.218E-11 0.715E+03   -.782E-13 0.355E-14 -.715E+03   0.000E+00 0.000E+00 0.564E+00
   -.499E+00 0.499E+00 0.715E+03   0.495E+00 -.495E+00 -.715E+03   0.266E-02 -.266E-02 0.498E+00
   0.833E-12 0.432E+01 -.635E+03   -.284E-13 -.425E+01 0.635E+03   -.132E-22 -.772E-01 -.236E+00
   -.432E+01 -.165E-11 -.635E+03   0.425E+01 0.000E+00 0.635E+03   0.772E-01 -.265E-22 -.236E+00
   0.926E-12 0.845E-12 -.191E+04   -.426E-13 -.391E-13 0.191E+04   0.000E+00 0.000E+00 0.357E+01
   -.186E+02 0.186E+02 -.198E+04   0.187E+02 -.187E+02 0.198E+04   -.825E-01 0.825E-01 0.579E+01
   -.647E-13 -.421E+00 0.535E+03   0.409E-13 0.416E+00 -.535E+03   0.000E+00 0.766E-02 -.850E-01
   0.421E+00 0.530E-12 0.535E+03   -.416E+00 0.391E-13 -.535E+03   -.766E-02 -.265E-22 -.850E-01
   -.442E-13 0.249E-12 0.156E+04   0.853E-11 -.844E-11 -.156E+04   0.000E+00 0.000E+00 0.360E+01
   0.975E-01 -.975E-01 0.156E+04   -.968E-01 0.968E-01 -.156E+04   -.111E-02 0.111E-02 0.360E+01
   -.715E-13 -.748E+01 -.152E+04   -.871E-12 0.742E+01 0.153E+04   0.596E-22 0.563E-01 -.514E+01
   0.748E+01 -.478E-12 -.152E+04   -.742E+01 0.881E-12 0.153E+04   -.563E-01 -.811E-22 -.514E+01
   -.800E-13 0.572E-12 -.478E+03   -.853E-13 0.639E-13 0.478E+03   0.000E+00 -.132E-22 0.256E+00
   0.267E+01 -.267E+01 -.473E+03   -.266E+01 0.266E+01 0.473E+03   -.856E-02 0.856E-02 0.322E+00
   -.695E-13 0.421E+00 0.535E+03   0.142E-13 -.416E+00 -.535E+03   0.000E+00 -.766E-02 -.850E-01
   0.405E+00 0.111E-11 0.536E+03   -.431E+00 -.764E-11 -.536E+03   0.353E-01 0.165E-22 -.106E+00
   -.477E-13 0.815E-12 0.156E+04   0.845E-11 -.796E-12 -.156E+04   0.000E+00 0.000E+00 0.360E+01
   0.975E-01 0.975E-01 0.156E+04   -.968E-01 -.968E-01 -.156E+04   -.111E-02 -.111E-02 0.360E+01
   -.936E-13 0.748E+01 -.152E+04   -.774E-12 -.742E+01 0.153E+04   0.794E-22 -.563E-01 -.514E+01
   0.245E+02 0.127E-11 -.149E+04   -.242E+02 0.810E-11 0.149E+04   -.357E+00 0.794E-22 -.514E+01
   -.784E-13 -.404E-13 -.473E+03   -.741E-11 0.711E-14 0.473E+03   -.265E-22 0.000E+00 0.272E+00
   0.267E+01 0.267E+01 -.473E+03   -.266E+01 -.266E+01 0.473E+03   -.856E-02 -.856E-02 0.322E+00
   0.302E-12 -.405E+00 0.536E+03   0.764E-11 0.431E+00 -.536E+03   0.000E+00 -.353E-01 -.106E+00
   -.421E+00 0.576E-12 0.535E+03   0.416E+00 0.142E-13 -.535E+03   0.766E-02 -.265E-22 -.850E-01
   0.365E-12 -.160E-11 0.156E+04   0.845E-12 -.846E-11 -.156E+04   0.000E+00 -.132E-22 0.360E+01
   -.975E-01 -.975E-01 0.156E+04   0.968E-01 0.968E-01 -.156E+04   0.111E-02 0.111E-02 0.360E+01
   0.383E-12 -.245E+02 -.149E+04   -.816E-11 0.242E+02 0.149E+04   -.447E-22 0.357E+00 -.514E+01
   -.748E+01 -.586E-12 -.152E+04   0.742E+01 0.924E-12 0.153E+04   0.563E-01 -.106E-21 -.514E+01
   0.321E-12 -.586E-12 -.473E+03   -.711E-14 0.738E-11 0.473E+03   -.132E-22 0.000E+00 0.272E+00
   -.267E+01 -.267E+01 -.473E+03   0.266E+01 0.266E+01 0.473E+03   0.856E-02 0.856E-02 0.322E+00
   0.314E-12 0.405E+00 0.536E+03   0.763E-11 -.431E+00 -.536E+03   0.331E-23 0.353E-01 -.106E+00
   -.405E+00 0.201E-11 0.536E+03   0.431E+00 -.769E-11 -.536E+03   -.353E-01 0.000E+00 -.106E+00
   0.343E-12 -.105E-11 0.156E+04   0.824E-12 -.838E-12 -.156E+04   0.000E+00 0.000E+00 0.360E+01
   -.975E-01 0.975E-01 0.156E+04   0.968E-01 -.968E-01 -.156E+04   0.111E-02 -.111E-02 0.360E+01
   0.397E-12 0.245E+02 -.149E+04   -.820E-11 -.242E+02 0.149E+04   0.662E-22 -.357E+00 -.514E+01
   -.245E+02 -.139E-11 -.149E+04   0.242E+02 0.819E-11 0.149E+04   0.357E+00 -.106E-21 -.514E+01
   0.294E-12 -.404E-13 -.472E+03   -.497E-13 0.426E-13 0.473E+03   0.000E+00 0.000E+00 -.207E+00
   -.267E+01 0.267E+01 -.473E+03   0.266E+01 -.266E+01 0.473E+03   0.856E-02 -.856E-02 0.322E+00
 -----------------------------------------------------------------------------------------------
   0.261E-10 0.193E-10 0.526E+02   0.130E-12 -.586E-13 0.375E-11   -.399E-16 0.416E-16 -.526E+02


 POSITION                                       TOTAL-FORCE (eV/Angst)
 -----------------------------------------------------------------------------------
      4.22049      4.22049     16.27814         0.000000      0.000000      0.568783
      4.22049      4.22049     17.42496         0.000000      0.000000     -0.546852
      0.00000      6.33074      7.50000         0.000000      0.000056      0.320733
      2.11025      0.00000      7.50000        -0.000056      0.000000      0.320733
      0.00000      0.00000      9.61025         0.000000      0.000000      0.039270
      2.11025      6.33074      9.61025         0.001642     -0.001642      0.041253
      0.00000      6.33023     11.73368         0.000000     -0.000326      0.023750
      2.11076      0.00000     11.73368         0.000326      0.000000      0.023750
      0.00000      0.00000     13.83822         0.000000      0.000000      0.026432
      2.10905      6.33193     13.83447        -0.009307      0.009307      0.016037
      0.00000      2.11025      7.50000         0.000000     -0.000056      0.320733
      2.11025      4.22049      7.50000         0.000420      0.000000      0.320833
      0.00000      4.22049      9.61025         0.000000      0.000000      0.048592
      2.11025      2.11025      9.61025         0.001642      0.001642      0.041253
      0.00000      2.11076     11.73368         0.000000      0.000326      0.023750
      2.11344      4.22049     11.73659        -0.005080      0.000000      0.027783
      0.00000      4.22049     13.83544         0.000000      0.000000      0.021486
      2.10905      2.10905     13.83447        -0.009307     -0.009307      0.016037
      4.22049      6.33074      7.50000         0.000000     -0.000420      0.320833
      6.33074      0.00000      7.50000         0.000056      0.000000      0.320733
      4.22049      0.00000      9.61025         0.000000      0.000000      0.048592
      6.33074      6.33074      9.61025        -0.001642     -0.001642      0.041253
      4.22049      6.32754     11.73659         0.000000      0.005080      0.027783
      6.33023      0.00000     11.73368        -0.000326      0.000000      0.023750
      4.22049      0.00000     13.83544         0.000000      0.000000      0.021486
      6.33193      6.33193     13.83447         0.009307      0.009307      0.016037
      4.22049      2.11025      7.50000         0.000000      0.000420      0.320833
      6.33074      4.22049      7.50000        -0.000420      0.000000      0.320833
      4.22049      4.22049      9.61025         0.000000      0.000000      0.050696
      6.33074      2.11025      9.61025        -0.001642      0.001642      0.041253
      4.22049      2.11344     11.73659         0.000000     -0.005080      0.027783
      6.32754      4.22049     11.73659         0.005080      0.000000      0.027783
      4.22049      4.22049     13.87814         0.000000      0.000000      0.082703
      6.33193      2.10905     13.83447         0.009307     -0.009307      0.016037
      0.00000      6.33074      9.61025         0.000000      0.002203      0.065033
      2.11025      0.00000      9.61025        -0.002203      0.000000      0.065033
      0.00000      0.00000      7.50000         0.000000      0.000000     -0.402169
      2.11025      6.33074      7.50000        -0.000321      0.000321     -0.401928
      0.00000      6.33258     13.88587         0.000000     -0.001853     -0.098380
      2.10840      0.00000     13.88587         0.001853      0.000000     -0.098380
      0.00000      0.00000     11.72785         0.000000      0.000000      0.016049
      2.10979      6.33120     11.72890         0.003186     -0.003186      0.010360
      0.00000      2.11025      9.61025         0.000000     -0.002203      0.065033
      2.11025      4.22049      9.61025         0.009118      0.000000      0.073411
      0.00000      4.22049      7.50000         0.000000      0.000000     -0.402069
      2.11025      2.11025      7.50000        -0.000321     -0.000321     -0.401928
      0.00000      2.10840     13.88587         0.000000      0.001853     -0.098380
      2.10031      4.22049     13.88381        -0.010946      0.000000     -0.097811
      0.00000      4.22049     11.72684         0.000000      0.000000      0.012247
      2.10979      2.10979     11.72890         0.003186      0.003186      0.010360
      4.22049      6.33074      9.61025         0.000000     -0.009118      0.073411
      6.33074      0.00000      9.61025         0.002203      0.000000      0.065033
      4.22049      0.00000      7.50000         0.000000      0.000000     -0.402069
      6.33074      6.33074      7.50000         0.000321      0.000321     -0.401928
      4.22049      6.34068     13.88381         0.000000      0.010946     -0.097811
      6.33258      0.00000     13.88587        -0.001853      0.000000     -0.098380
      4.22049      0.00000     11.72684         0.000000      0.000000      0.012247
      6.33120      6.33120     11.72890        -0.003186     -0.003186      0.010360
      4.22049      2.11025      9.61025         0.000000      0.009118      0.073411
      6.33074      4.22049      9.61025        -0.009118      0.000000      0.073411
      4.22049      4.22049      7.50000         0.000000      0.000000     -0.402598
      6.33074      2.11025      7.50000         0.000321     -0.000321     -0.401928
      4.22049      2.10031     13.88381         0.000000     -0.010946     -0.097811
      6.34068      4.22049     13.88381         0.010946      0.000000     -0.097811
      4.22049      4.22049     11.73684         0.000000      0.000000      0.002878
      6.33120      2.10979     11.72890        -0.003186      0.003186      0.010360
 -----------------------------------------------------------------------------------
    total drift:                                0.000000      0.000000      0.002009


--------------------------------------------------------------------------------------------------------



  FREE ENERGIE OF THE ION-ELECTRON SYSTEM (eV)
  ---------------------------------------------------
  free  energy   TOTEN  =      -277.38952484 eV

  energy  without entropy=     -277.38952484  energy(sigma->0) =     -277.38952484



--------------------------------------------------------------------------------------------------------


    POTLOK:  cpu time      0.5281: real time      0.5283


--------------------------------------------------------------------------------------------------------


     LOOP+:  cpu time     61.1985: real time     61.5477
    4ORBIT:  cpu time      0.0000: real time      0.0000

 total amount of memory used by VASP MPI-rank0    78528. kBytes
=======================================================================

   base      :      30000. kBytes
   nonl-proj :      29343. kBytes
   fftplans  :       3857. kBytes
   grid      :       5885. kBytes
   one-center:        137. kBytes
   wavefun   :       9306. kBytes

  
  
 General timing and accounting informations for this job:
 ========================================================
  
                  Total CPU time used (sec):       79.144
                            User time (sec):       77.229
                          System time (sec):        1.915
                         Elapsed time (sec):       84.288
  
                   Maximum memory used (kb):      270596.
                   Average memory used (kb):          N/A
  
                          Minor page faults:        31667
                          Major page faults:           51
                 Voluntary context switches:         7201
