 vasp.6.3.0 20Jan22 (build Apr  1 2022 16:44:48) complex                         
 executed on        HPECrayEX_GCC date 2023.05.17  21:47:31
 running  512 mpi-ranks, with    1 threads/rank
 distrk:  each k-point on  256 cores,    2 groups
 distr:  one band on NCORE=   4 cores,   64 groups


--------------------------------------------------------------------------------------------------------


 INCAR:
   SYSTEM = MgO-rocksalt
   ISMEAR = 0
   SIGMA = 0.05
   EDIFF = 1E-6
   ALGO = ALL
   ISTART = 0
   IBRION = -1
   NSW = 0
   ISYM = 2
   ISIF = 2
   EDIFFG = -0.01
   DIPOL = 0.5 0.5 0.5
   IDIPOL = 3
   LDIPOL = .TRUE.
   GGA = RE
   LUSE_VDW = .TRUE.
   AGGAC = 0.0
   ENCUT = 600
   PREC = Normal
   LASPH = .TRUE.
   LREAL = .FALSE.
   ISPIN = 1
   NELM = 200
   NELMIN = 8
   NCORE = 4
   KPAR = 2
   LWAVE = .FALSE.
   LCHARG = .FALSE.

 POTCAR:    PAW_PBE C 08Apr2002                   
 POTCAR:    PAW_PBE O 08Apr2002                   
 POTCAR:    PAW_PBE Mg_pv 13Apr2007               
 POTCAR:    PAW_PBE O 08Apr2002                   
 -----------------------------------------------------------------------------
|                                                                             |
|               ----> ADVICE to this user running VASP <----                  |
|                                                                             |
|     You have switched on vdW-DFT.                                           |
|     This routine was written and supplied by Jiri Klimes. We recommend      |
|     that you carefully read and cite the following publications:            |
|       J. Klimes, D.R. Bowler, A. Michelides                                 |
|          J. Phys.: Cond Matt. 22 022201 (2010)                              |
|       J. Klimes, D.R. Bowler, A. Michelides                                 |
|          Phys. Rev. B. 83, 195131 (2011)                                    |
|     and references therein.                                                 |
|                                                                             |
 -----------------------------------------------------------------------------

 POTCAR:    PAW_PBE C 08Apr2002                   
   SHA256 =  253f7b50bb8d59471dbedb8285d89021f4a42ed1a2c5d38a03a736e69125dd95 C/POTCAR              
   COPYR  = (c) Copyright 08Apr2002 Georg Kresse                                                    
   COPYR  = This file is part of the software VASP. Any use, copying, and all other rights are regul
   COPYR  = If you do not have a valid VASP license, you may not use, copy or distribute this file. 
   VRHFIN =C: s2p2                                                                                  
   LEXCH  = PE                                                                                      
   EATOM  =   147.1560 eV,   10.8157 Ry                                                             
                                                                                                    
   TITEL  = PAW_PBE C 08Apr2002                                                                     
   LULTRA =        F    use ultrasoft PP ?                                                          
   IUNSCR =        1    unscreen: 0-lin 1-nonlin 2-no                                               
   RPACOR =    1.200    partial core radius                                                         
   POMASS =   12.011; ZVAL   =    4.000    mass and valenz                                          
   RCORE  =    1.500    outmost cutoff radius                                                       
   RWIGS  =    1.630; RWIGS  =    0.863    wigner-seitz radius (au A)                               
   ENMAX  =  400.000; ENMIN  =  300.000 eV                                                          
   ICORE  =        2    local potential                                                             
   LCOR   =        T    correct aug charges                                                         
   LPAW   =        T    paw PP                                                                      
   EAUG   =  644.873                                                                                
   DEXC   =    0.000                                                                                
   RMAX   =    1.529    core radius for proj-oper                                                   
   RAUG   =    1.300    factor for augmentation sphere                                              
   RDEP   =    1.501    radius for radial grids                                                     
   RDEPT  =    1.300    core radius for aug-charge                                                  
                                                                                                    
   Atomic configuration                                                                             
    4 entries                                                                                       
     n  l   j            E        occ.                                                              
     1  0  0.50      -273.3789   2.0000                                                             
     2  0  0.50       -13.7508   2.0000                                                             
     2  1  0.50        -5.2854   2.0000                                                             
     3  2  1.50        -5.4423   0.0000                                                             
   Description                                                                                      
     l       E           TYP  RCUT    TYP  RCUT                                                     
     0    -13.7508458     23  1.200                                                                 
     0     -8.2022199     23  1.200                                                                 
     1     -5.2854383     23  1.500                                                                 
     1     34.0145650     23  1.500                                                                 
     2     -5.4423304      7  1.500                                                                 
  local pseudopotential read in
  partial core-charges read in
  partial kinetic energy density read in
  atomic valenz-charges read in
  non local Contribution for L=           0  read in
    real space projection operators read in
  non local Contribution for L=           0  read in
    real space projection operators read in
  non local Contribution for L=           1  read in
    real space projection operators read in
  non local Contribution for L=           1  read in
    real space projection operators read in
    PAW grid and wavefunctions read in

   number of l-projection  operators is LMAX  =           4
   number of lm-projection operators is LMMAX =           8

 POTCAR:    PAW_PBE O 08Apr2002                   
   SHA256 =  818f92134a0a090dccd8ba1447fa70422a3b330e708bb4f08108d8ae51209ddf O/POTCAR              
   COPYR  = (c) Copyright 08Apr2002 Georg Kresse                                                    
   COPYR  = This file is part of the software VASP. Any use, copying, and all other rights are regul
   COPYR  = If you do not have a valid VASP license, you may not use, copy or distribute this file. 
   VRHFIN =O: s2p4                                                                                  
   LEXCH  = PE                                                                                      
   EATOM  =   432.3788 eV,   31.7789 Ry                                                             
                                                                                                    
   TITEL  = PAW_PBE O 08Apr2002                                                                     
   LULTRA =        F    use ultrasoft PP ?                                                          
   IUNSCR =        1    unscreen: 0-lin 1-nonlin 2-no                                               
   RPACOR =    1.200    partial core radius                                                         
   POMASS =   16.000; ZVAL   =    6.000    mass and valenz                                          
   RCORE  =    1.520    outmost cutoff radius                                                       
   RWIGS  =    1.550; RWIGS  =    0.820    wigner-seitz radius (au A)                               
   ENMAX  =  400.000; ENMIN  =  300.000 eV                                                          
   ICORE  =        2    local potential                                                             
   LCOR   =        T    correct aug charges                                                         
   LPAW   =        T    paw PP                                                                      
   EAUG   =  605.392                                                                                
   DEXC   =    0.000                                                                                
   RMAX   =    1.553    core radius for proj-oper                                                   
   RAUG   =    1.300    factor for augmentation sphere                                              
   RDEP   =    1.550    radius for radial grids                                                     
   RDEPT  =    1.329    core radius for aug-charge                                                  
                                                                                                    
   Atomic configuration                                                                             
    4 entries                                                                                       
     n  l   j            E        occ.                                                              
     1  0  0.50      -514.6923   2.0000                                                             
     2  0  0.50       -23.9615   2.0000                                                             
     2  1  0.50        -9.0305   4.0000                                                             
     3  2  1.50        -9.5241   0.0000                                                             
   Description                                                                                      
     l       E           TYP  RCUT    TYP  RCUT                                                     
     0    -23.9615318     23  1.200                                                                 
     0     -9.5240782     23  1.200                                                                 
     1     -9.0304911     23  1.520                                                                 
     1      8.1634956     23  1.520                                                                 
     2     -9.5240782      7  1.500                                                                 
  local pseudopotential read in
  partial core-charges read in
  partial kinetic energy density read in
  kinetic energy density of atom read in
  atomic valenz-charges read in
  non local Contribution for L=           0  read in
    real space projection operators read in
  non local Contribution for L=           0  read in
    real space projection operators read in
  non local Contribution for L=           1  read in
    real space projection operators read in
  non local Contribution for L=           1  read in
    real space projection operators read in
    PAW grid and wavefunctions read in

   number of l-projection  operators is LMAX  =           4
   number of lm-projection operators is LMMAX =           8

 POTCAR:    PAW_PBE Mg_pv 13Apr2007               
   SHA256 =  f474ac0dd33840b9ae76c01d57fea79fdf77cdfbb07d5ade72c65f83c709b62b Mg_pv/POTCAR          
   COPYR  = (c) Copyright 13Apr2007 Georg Kresse                                                    
   COPYR  = This file is part of the software VASP. Any use, copying, and all other rights are regul
   COPYR  = If you do not have a valid VASP license, you may not use, copy or distribute this file. 
   VRHFIN =Mg: p6s2                                                                                 
   LEXCH  = PE                                                                                      
   EATOM  =  1056.7344 eV,   77.6678 Ry                                                             
                                                                                                    
   TITEL  = PAW_PBE Mg_pv 13Apr2007                                                                 
   LULTRA =        F    use ultrasoft PP ?                                                          
   IUNSCR =        1    unscreen: 0-lin 1-nonlin 2-no                                               
   RPACOR =    1.500    partial core radius                                                         
   POMASS =   24.305; ZVAL   =    8.000    mass and valenz                                          
   RCORE  =    2.000    outmost cutoff radius                                                       
   RWIGS  =    2.000; RWIGS  =    1.058    wigner-seitz radius (au A)                               
   ENMAX  =  403.929; ENMIN  =  302.947 eV                                                          
   RCLOC  =    1.506    cutoff for local pot                                                        
   LCOR   =        T    correct aug charges                                                         
   LPAW   =        T    paw PP                                                                      
   EAUG   =  758.780                                                                                
   DEXC   =    0.000                                                                                
   RMAX   =    2.045    core radius for proj-oper                                                   
   RAUG   =    1.300    factor for augmentation sphere                                              
   RDEP   =    2.025    radius for radial grids                                                     
   RDEPT  =    1.557    core radius for aug-charge                                                  
                                                                                                    
   Atomic configuration                                                                             
    5 entries                                                                                       
     n  l   j            E        occ.                                                              
     1  0  0.50     -1259.6230   2.0000                                                             
     2  0  0.50       -79.8442   2.0000                                                             
     2  1  1.50       -46.6121   6.0000                                                             
     3  0  0.50        -4.7055   2.0000                                                             
     3  2  1.50        -1.3606   0.0000                                                             
   Description                                                                                      
     l       E           TYP  RCUT    TYP  RCUT                                                     
     1    -46.6121073     23  1.600                                                                 
     1      2.7211652     23  1.600                                                                 
     0     -4.7054661     23  2.000                                                                 
     0     61.2262170     23  2.000                                                                 
     2     -1.3605826     23  2.000                                                                 
  local pseudopotential read in
  partial core-charges read in
  partial kinetic energy density read in
  atomic valenz-charges read in
  non local Contribution for L=           1  read in
    real space projection operators read in
  non local Contribution for L=           1  read in
    real space projection operators read in
  non local Contribution for L=           0  read in
    real space projection operators read in
  non local Contribution for L=           0  read in
    real space projection operators read in
  non local Contribution for L=           2  read in
    real space projection operators read in
    PAW grid and wavefunctions read in

   number of l-projection  operators is LMAX  =           5
   number of lm-projection operators is LMMAX =          13

 POTCAR:    PAW_PBE O 08Apr2002                   
   SHA256 =  818f92134a0a090dccd8ba1447fa70422a3b330e708bb4f08108d8ae51209ddf O/POTCAR              
   COPYR  = (c) Copyright 08Apr2002 Georg Kresse                                                    
   COPYR  = This file is part of the software VASP. Any use, copying, and all other rights are regul
   COPYR  = If you do not have a valid VASP license, you may not use, copy or distribute this file. 
   VRHFIN =O: s2p4                                                                                  
   LEXCH  = PE                                                                                      
   EATOM  =   432.3788 eV,   31.7789 Ry                                                             
                                                                                                    
   TITEL  = PAW_PBE O 08Apr2002                                                                     
   LULTRA =        F    use ultrasoft PP ?                                                          
   IUNSCR =        1    unscreen: 0-lin 1-nonlin 2-no                                               
   RPACOR =    1.200    partial core radius                                                         
   POMASS =   16.000; ZVAL   =    6.000    mass and valenz                                          
   RCORE  =    1.520    outmost cutoff radius                                                       
   RWIGS  =    1.550; RWIGS  =    0.820    wigner-seitz radius (au A)                               
   ENMAX  =  400.000; ENMIN  =  300.000 eV                                                          
   ICORE  =        2    local potential                                                             
   LCOR   =        T    correct aug charges                                                         
   LPAW   =        T    paw PP                                                                      
   EAUG   =  605.392                                                                                
   DEXC   =    0.000                                                                                
   RMAX   =    1.553    core radius for proj-oper                                                   
   RAUG   =    1.300    factor for augmentation sphere                                              
   RDEP   =    1.550    radius for radial grids                                                     
   RDEPT  =    1.329    core radius for aug-charge                                                  
                                                                                                    
   Atomic configuration                                                                             
    4 entries                                                                                       
     n  l   j            E        occ.                                                              
     1  0  0.50      -514.6923   2.0000                                                             
     2  0  0.50       -23.9615   2.0000                                                             
     2  1  0.50        -9.0305   4.0000                                                             
     3  2  1.50        -9.5241   0.0000                                                             
   Description                                                                                      
     l       E           TYP  RCUT    TYP  RCUT                                                     
     0    -23.9615318     23  1.200                                                                 
     0     -9.5240782     23  1.200                                                                 
     1     -9.0304911     23  1.520                                                                 
     1      8.1634956     23  1.520                                                                 
     2     -9.5240782      7  1.500                                                                 
  local pseudopotential read in
  partial core-charges read in
  partial kinetic energy density read in
  kinetic energy density of atom read in
  atomic valenz-charges read in
  non local Contribution for L=           0  read in
    real space projection operators read in
  non local Contribution for L=           0  read in
    real space projection operators read in
  non local Contribution for L=           1  read in
    real space projection operators read in
  non local Contribution for L=           1  read in
    real space projection operators read in
    PAW grid and wavefunctions read in

   number of l-projection  operators is LMAX  =           4
   number of lm-projection operators is LMMAX =           8

 -----------------------------------------------------------------------------
|                                                                             |
|               ----> ADVICE to this user running VASP <----                  |
|                                                                             |
|     You have a (more or less) 'large supercell' and for larger cells it     |
|     might be more efficient to use real-space projection operators.         |
|     Therefore, try LREAL= Auto in the INCAR file.                           |
|     Mind: For very accurate calculation, you might also keep the            |
|     reciprocal projection scheme (i.e. LREAL=.FALSE.).                      |
|                                                                             |
 -----------------------------------------------------------------------------

 -----------------------------------------------------------------------------
|                                                                             |
|               ----> ADVICE to this user running VASP <----                  |
|                                                                             |
|     You enforced a specific xc type in the INCAR file but a different       |
|     type was found in the POTCAR file.                                      |
|     I HOPE YOU KNOW WHAT YOU ARE DOING!                                     |
|                                                                             |
 -----------------------------------------------------------------------------

  PAW_PBE C 08Apr2002                   :
 energy of atom  1       EATOM= -147.1560
 kinetic energy error for atom=    0.0057 (will be added to EATOM!!)
  PAW_PBE O 08Apr2002                   :
 energy of atom  2       EATOM= -432.3788
 kinetic energy error for atom=    0.0168 (will be added to EATOM!!)
  PAW_PBE Mg_pv 13Apr2007               :
 energy of atom  3       EATOM=-1056.7344
 kinetic energy error for atom=    0.0221 (will be added to EATOM!!)
  PAW_PBE O 08Apr2002                   :
 energy of atom  4       EATOM= -432.3788
 kinetic energy error for atom=    0.0168 (will be added to EATOM!!)


 POSCAR:  C  O Mg  O
  positions in direct lattice
  No initial velocities read in
 exchange correlation table for  LEXCH =       40
   RHO(1)=    0.500       N(1)  =     2000
   RHO(2)=  100.500       N(2)  =     4000



--------------------------------------------------------------------------------------------------------


 ion  position               nearest neighbor table
   1  0.500  0.500  0.764-   2 1.15
   2  0.500  0.500  0.818-   1 1.15
   3  0.000  0.750  0.352-  35 2.11  37 2.11  38 2.11  45 2.11  54 2.11
   4  0.250  0.000  0.352-  36 2.11  37 2.11  38 2.11  46 2.11  53 2.11
   5  0.000  0.000  0.451-  37 2.11  36 2.11  35 2.11  43 2.11  52 2.11  41 2.12
   6  0.250  0.750  0.451-  38 2.11  36 2.11  35 2.11  44 2.11  51 2.11  42 2.12
   7  0.000  0.750  0.550-  49 2.11  42 2.11  58 2.11  41 2.11  35 2.12  39 2.15
   8  0.250  0.000  0.550-  57 2.11  50 2.11  42 2.11  41 2.11  36 2.12  40 2.15
   9  0.000  0.000  0.649-  39 2.11  40 2.11  47 2.11  56 2.11  41 2.11
  10  0.250  0.750  0.649-  42 2.11  40 2.11  39 2.11  48 2.11  55 2.11
  11  0.000  0.250  0.352-  43 2.11  37 2.11  45 2.11  46 2.11  62 2.11
  12  0.250  0.500  0.352-  44 2.11  38 2.11  45 2.11  46 2.11  61 2.11
  13  0.000  0.500  0.451-  45 2.11  43 2.11  44 2.11  35 2.11  60 2.11  49 2.12
  14  0.250  0.250  0.451-  46 2.11  43 2.11  44 2.11  36 2.11  59 2.11  50 2.12
  15  0.000  0.250  0.550-  49 2.11  50 2.11  66 2.11  41 2.11  43 2.12  47 2.15
  16  0.250  0.500  0.550-  65 2.11  50 2.11  42 2.11  49 2.11  44 2.13  48 2.15
  17  0.000  0.500  0.649-  48 2.10  64 2.10  49 2.11  47 2.11  39 2.11
  18  0.250  0.250  0.649-  50 2.11  47 2.11  40 2.11  48 2.11  63 2.11
  19  0.500  0.750  0.352-  51 2.11  38 2.11  53 2.11  54 2.11  61 2.11
  20  0.750  0.000  0.352-  52 2.11  37 2.11  53 2.11  54 2.11  62 2.11
  21  0.500  0.000  0.451-  53 2.11  51 2.11  52 2.11  36 2.11  59 2.11  57 2.12
  22  0.750  0.750  0.451-  54 2.11  51 2.11  52 2.11  35 2.11  60 2.11  58 2.12
  23  0.500  0.750  0.550-  65 2.11  58 2.11  42 2.11  57 2.11  51 2.13  55 2.15
  24  0.750  0.000  0.550-  57 2.11  58 2.11  66 2.11  41 2.11  52 2.12  56 2.15
  25  0.500  0.000  0.649-  55 2.10  63 2.10  57 2.11  40 2.11  56 2.11
  26  0.750  0.750  0.649-  58 2.11  56 2.11  39 2.11  55 2.11  64 2.11
  27  0.500  0.250  0.352-  59 2.11  53 2.11  46 2.11  61 2.11  62 2.11
  28  0.750  0.500  0.352-  60 2.11  54 2.11  45 2.11  61 2.11  62 2.11
  29  0.500  0.500  0.451-  61 2.11  51 2.11  59 2.11  60 2.11  44 2.11  65 2.13
  30  0.750  0.250  0.451-  62 2.11  52 2.11  59 2.11  60 2.11  43 2.11  66 2.12
  31  0.500  0.250  0.550-  65 2.11  50 2.11  66 2.11  57 2.11  59 2.13  63 2.15
  32  0.750  0.500  0.550-  65 2.11  58 2.11  66 2.11  49 2.11  60 2.13  64 2.15
  33  0.500  0.500  0.651-  48 2.12  55 2.12  63 2.12  64 2.12  65 2.14
  34  0.750  0.250  0.649-  66 2.11  56 2.11  47 2.11  64 2.11  63 2.11
  35  0.000  0.750  0.451-   3 2.11   5 2.11   6 2.11  13 2.11  22 2.11   7 2.12
  36  0.250  0.000  0.451-   4 2.11   5 2.11   6 2.11  14 2.11  21 2.11   8 2.12
  37  0.000  0.000  0.352-   5 2.11   4 2.11   3 2.11  11 2.11  20 2.11
  38  0.250  0.750  0.352-   6 2.11   4 2.11   3 2.11  12 2.11  19 2.11
  39  0.000  0.750  0.651-   9 2.11  10 2.11  26 2.11  17 2.11   7 2.15
  40  0.250  0.000  0.651-   9 2.11  10 2.11  18 2.11  25 2.11   8 2.15
  41  0.000  0.000  0.550-   9 2.11   8 2.11   7 2.11  15 2.11  24 2.11   5 2.12
  42  0.250  0.750  0.550-  10 2.11   8 2.11   7 2.11  16 2.11  23 2.11   6 2.12
  43  0.000  0.250  0.451-  11 2.11   5 2.11  13 2.11  14 2.11  30 2.11  15 2.12
  44  0.250  0.500  0.451-  12 2.11   6 2.11  13 2.11  14 2.11  29 2.11  16 2.13
  45  0.000  0.500  0.352-  13 2.11  11 2.11  12 2.11   3 2.11  28 2.11
  46  0.250  0.250  0.352-  14 2.11  11 2.11  12 2.11   4 2.11  27 2.11
  47  0.000  0.250  0.651-   9 2.11  18 2.11  34 2.11  17 2.11  15 2.15
  48  0.249  0.500  0.651-  17 2.10  10 2.11  18 2.11  33 2.12  16 2.15
  49  0.000  0.500  0.550-  17 2.11  15 2.11   7 2.11  16 2.11  32 2.11  13 2.12
  50  0.250  0.250  0.550-  18 2.11  15 2.11   8 2.11  16 2.11  31 2.11  14 2.12
  51  0.500  0.750  0.451-  19 2.11   6 2.11  21 2.11  22 2.11  29 2.11  23 2.13
  52  0.750  0.000  0.451-  20 2.11   5 2.11  21 2.11  22 2.11  30 2.11  24 2.12
  53  0.500  0.000  0.352-  21 2.11  19 2.11  20 2.11   4 2.11  27 2.11
  54  0.750  0.750  0.352-  22 2.11  19 2.11  20 2.11   3 2.11  28 2.11
  55  0.500  0.751  0.651-  25 2.10  10 2.11  26 2.11  33 2.12  23 2.15
  56  0.750  0.000  0.651-   9 2.11  26 2.11  34 2.11  25 2.11  24 2.15
  57  0.500  0.000  0.550-  25 2.11  24 2.11   8 2.11  23 2.11  31 2.11  21 2.12
  58  0.750  0.750  0.550-  26 2.11  24 2.11   7 2.11  32 2.11  23 2.11  22 2.12
  59  0.500  0.250  0.451-  27 2.11  21 2.11  14 2.11  29 2.11  30 2.11  31 2.13
  60  0.750  0.500  0.451-  28 2.11  22 2.11  13 2.11  29 2.11  30 2.11  32 2.13
  61  0.500  0.500  0.352-  29 2.11  19 2.11  27 2.11  28 2.11  12 2.11
  62  0.750  0.250  0.352-  30 2.11  20 2.11  27 2.11  28 2.11  11 2.11
  63  0.500  0.249  0.651-  25 2.10  18 2.11  34 2.11  33 2.12  31 2.15
  64  0.751  0.500  0.651-  17 2.10  26 2.11  34 2.11  33 2.12  32 2.15
  65  0.500  0.500  0.550-  16 2.11  23 2.11  31 2.11  32 2.11  29 2.13  33 2.14
  66  0.750  0.250  0.550-  34 2.11  24 2.11  15 2.11  32 2.11  31 2.11  30 2.12

  LATTYP: Found a simple tetragonal cell.
 ALAT       =     8.4409846542
 C/A-ratio  =     2.5270438657
  
  Lattice vectors:
  
 A1 = (   8.4409846542,   0.0000000000,   0.0000000000)
 A2 = (   0.0000000000,   8.4409846542,   0.0000000000)
 A3 = (   0.0000000000,   0.0000000000,  21.3307384906)


Analysis of symmetry for initial positions (statically):
=====================================================================
 Subroutine PRICEL returns:
 Original cell was already a primitive cell.
 

 Routine SETGRP: Setting up the symmetry group for a 
 simple tetragonal supercell.


 Subroutine GETGRP returns: Found  8 space group operations
 (whereof  8 operations were pure point group operations)
 out of a pool of 16 trial point group operations.


The static configuration has the point symmetry C_4v.


Analysis of symmetry for dynamics (positions and initial velocities):
=====================================================================
 Subroutine PRICEL returns:
 Original cell was already a primitive cell.
 

 Routine SETGRP: Setting up the symmetry group for a 
 simple tetragonal supercell.


 Subroutine GETGRP returns: Found  8 space group operations
 (whereof  8 operations were pure point group operations)
 out of a pool of 16 trial point group operations.


The dynamic configuration has the point symmetry C_4v.


 Subroutine INISYM returns: Found  8 space group operations
 (whereof  8 operations are pure point group operations),
 and found     1 'primitive' translations


----------------------------------------------------------------------------------------

                                     Primitive cell                                     

  volume of cell :    1519.8199

  direct lattice vectors                    reciprocal lattice vectors
     8.440984654  0.000000000  0.000000000     0.118469591  0.000000000  0.000000000
     0.000000000  8.440984654  0.000000000     0.000000000  0.118469591  0.000000000
     0.000000000  0.000000000 21.330738491     0.000000000  0.000000000  0.046880702

  length of vectors
     8.440984654  8.440984654 21.330738491     0.118469591  0.118469591  0.046880702

  position of ions in fractional coordinates (direct lattice)
     0.500000000  0.500000000  0.764068260
     0.500000000  0.500000000  0.817831978
     0.000000000  0.750000000  0.351605267
     0.250000000  0.000000000  0.351605267
     0.000000000  0.000000000  0.450535089
     0.250000000  0.750000000  0.450535089
     0.000000000  0.749939268  0.550083239
     0.250060732  0.000000000  0.550083239
     0.000000000  0.000000000  0.648745309
     0.249858327  0.750141673  0.648569547
     0.000000000  0.250000000  0.351605267
     0.250000000  0.500000000  0.351605267
     0.000000000  0.500000000  0.450535089
     0.250000000  0.250000000  0.450535089
     0.000000000  0.250060732  0.550083239
     0.250378379  0.500000000  0.550219524
     0.000000000  0.500000000  0.648615280
     0.249858327  0.249858327  0.648569547
     0.500000000  0.750000000  0.351605267
     0.750000000  0.000000000  0.351605267
     0.500000000  0.000000000  0.450535089
     0.750000000  0.750000000  0.450535089
     0.500000000  0.749621621  0.550219524
     0.749939268  0.000000000  0.550083239
     0.500000000  0.000000000  0.648615280
     0.750141673  0.750141673  0.648569547
     0.500000000  0.250000000  0.351605267
     0.750000000  0.500000000  0.351605267
     0.500000000  0.500000000  0.450535089
     0.750000000  0.250000000  0.450535089
     0.500000000  0.250378379  0.550219524
     0.749621621  0.500000000  0.550219524
     0.500000000  0.500000000  0.650616960
     0.750141673  0.249858327  0.648569547
     0.000000000  0.750000000  0.450535089
     0.250000000  0.000000000  0.450535089
     0.000000000  0.000000000  0.351605267
     0.250000000  0.750000000  0.351605267
     0.000000000  0.750218533  0.650979255
     0.249781467  0.000000000  0.650979255
     0.000000000  0.000000000  0.549809890
     0.249945770  0.750054230  0.549859113
     0.000000000  0.250000000  0.450535089
     0.250000000  0.500000000  0.450535089
     0.000000000  0.500000000  0.351605267
     0.250000000  0.250000000  0.351605267
     0.000000000  0.249781467  0.650979255
     0.248822710  0.500000000  0.650882872
     0.000000000  0.500000000  0.549762666
     0.249945770  0.249945770  0.549859113
     0.500000000  0.750000000  0.450535089
     0.750000000  0.000000000  0.450535089
     0.500000000  0.000000000  0.351605267
     0.750000000  0.750000000  0.351605267
     0.500000000  0.751177290  0.650882872
     0.750218533  0.000000000  0.650979255
     0.500000000  0.000000000  0.549762666
     0.750054230  0.750054230  0.549859113
     0.500000000  0.250000000  0.450535089
     0.750000000  0.500000000  0.450535089
     0.500000000  0.500000000  0.351605267
     0.750000000  0.250000000  0.351605267
     0.500000000  0.248822710  0.650882872
     0.751177290  0.500000000  0.650882872
     0.500000000  0.500000000  0.550231357
     0.750054230  0.249945770  0.549859113

  ion indices of the primitive-cell ions
   primitive index   ion index
                 1           1
                 2           2
                 3           3
                 4           4
                 5           5
                 6           6
                 7           7
                 8           8
                 9           9
                10          10
                11          11
                12          12
                13          13
                14          14
                15          15
                16          16
                17          17
                18          18
                19          19
                20          20
                21          21
                22          22
                23          23
                24          24
                25          25
                26          26
                27          27
                28          28
                29          29
                30          30
                31          31
                32          32
                33          33
                34          34
                35          35
                36          36
                37          37
                38          38
                39          39
                40          40
                41          41
                42          42
                43          43
                44          44
                45          45
                46          46
                47          47
                48          48
                49          49
                50          50
                51          51
                52          52
                53          53
                54          54
                55          55
                56          56
                57          57
                58          58
                59          59
                60          60
                61          61
                62          62
                63          63
                64          64
                65          65
                66          66

----------------------------------------------------------------------------------------



 KPOINTS: pymatgen v2020.8.13 with grid density = 

Automatic generation of k-mesh.
 Grid dimensions read from file:
 generate k-points for:    2    2    1

 Generating k-lattice:

  Cartesian coordinates                     Fractional coordinates (reciprocal lattice)
     0.059234796  0.000000000  0.000000000     0.500000000  0.000000000  0.000000000
     0.000000000  0.059234796  0.000000000     0.000000000  0.500000000  0.000000000
     0.000000000  0.000000000  0.046880702     0.000000000  0.000000000  1.000000000

  Length of vectors
     0.059234796  0.059234796  0.046880702

  Shift w.r.t. Gamma in fractional coordinates (k-lattice)
     0.000000000  0.000000000  0.000000000

 
 Subroutine IBZKPT returns following result:
 ===========================================
 
 Found      3 irreducible k-points:
 
 Following reciprocal coordinates:
            Coordinates               Weight
  0.000000  0.000000  0.000000      1.000000
  0.500000  0.000000  0.000000      2.000000
  0.500000  0.500000  0.000000      1.000000
 
 Following cartesian coordinates:
            Coordinates               Weight
  0.000000  0.000000  0.000000      1.000000
  0.059235  0.000000  0.000000      2.000000
  0.059235  0.059235  0.000000      1.000000
 


--------------------------------------------------------------------------------------------------------




 Dimension of arrays:
   k-points           NKPTS =      3   k-points in BZ     NKDIM =      3   number of bands    NBANDS=    320
   number of dos      NEDOS =    301   number of ions     NIONS =     66
   non local maximal  LDIM  =      5   non local SUM 2l+1 LMDIM =     13
   total plane-waves  NPLWV = 373248
   max r-space proj   IRMAX =      1   max aug-charges    IRDMAX=   5039
   dimension x,y,z NGX =    54 NGY =   54 NGZ =  128
   dimension x,y,z NGXF=   108 NGYF=  108 NGZF=  256
   support grid    NGXF=   108 NGYF=  108 NGZF=  256
   ions per type =               1   1  32  32
   NGX,Y,Z   is equivalent  to a cutoff of  10.64, 10.64,  9.98 a.u.
   NGXF,Y,Z  is equivalent  to a cutoff of  21.27, 21.27, 19.95 a.u.

 SYSTEM =  MgO-rocksalt                            
 POSCAR =   C  O Mg  O                             

 Startparameter for this run:
   NWRITE =      2    write-flag & timer
   PREC   = normal    normal or accurate (medium, high low for compatibility)
   ISTART =      0    job   : 0-new  1-cont  2-samecut
   ICHARG =      2    charge: 1-file 2-atom 10-const
   ISPIN  =      1    spin polarized calculation?
   LNONCOLLINEAR =      F non collinear calculations
   LSORBIT =      F    spin-orbit coupling
   INIWAV =      1    electr: 0-lowe 1-rand  2-diag
   LASPH  =      T    aspherical Exc in radial PAW
 Electronic Relaxation 1
   ENCUT  =  600.0 eV  44.10 Ry    6.64 a.u.  16.86 16.86 42.60*2*pi/ulx,y,z
   ENINI  =  600.0     initial cutoff
   ENAUG  =  758.8 eV  augmentation charge cutoff
   NELM   =    200;   NELMIN=  8; NELMDL= -5     # of ELM steps 
   EDIFF  = 0.1E-05   stopping-criterion for ELM
   LREAL  =      F    real-space projection
   NLSPLINE    = F    spline interpolate recip. space projectors
   LCOMPAT=      F    compatible to vasp.4.4
   GGA_COMPAT  = T    GGA compatible to vasp.4.4-vasp.4.6
   LMAXPAW     = -100 max onsite density
   LMAXMIX     =    2 max onsite mixed and CHGCAR
   VOSKOWN=      0    Vosko Wilk Nusair interpolation
   ROPT   =    0.00000   0.00000   0.00000   0.00000
 Ionic relaxation
   EDIFFG = -.1E-01   stopping-criterion for IOM
   NSW    =      0    number of steps for IOM
   NBLOCK =      1;   KBLOCK =      1    inner block; outer block 
   IBRION =     -1    ionic relax: 0-MD 1-quasi-New 2-CG
   NFREE  =      0    steps in history (QN), initial steepest desc. (CG)
   ISIF   =      2    stress and relaxation
   IWAVPR =     10    prediction:  0-non 1-charg 2-wave 3-comb
   ISYM   =      2    0-nonsym 1-usesym 2-fastsym
   LCORR  =      T    Harris-Foulkes like correction to forces

   POTIM  = 0.5000    time-step for ionic-motion
   TEIN   =    0.0    initial temperature
   TEBEG  =    0.0;   TEEND  =   0.0 temperature during run
   SMASS  =  -3.00    Nose mass-parameter (am)
   estimated Nose-frequenzy (Omega)   =  0.10E-29 period in steps = 0.13E+47 mass=  -0.163E-26a.u.
   SCALEE = 1.0000    scale energy and forces
   NPACO  =    256;   APACO  = 10.0  distance and # of slots for P.C.
   PSTRESS=    0.0 pullay stress

  Mass of Ions in am
   POMASS =  12.01 16.00 24.30 16.00
  Ionic Valenz
   ZVAL   =   4.00  6.00  8.00  6.00
  Atomic Wigner-Seitz radii
   RWIGS  =  -1.00 -1.00 -1.00 -1.00
  virtual crystal weights 
   VCA    =   1.00  1.00  1.00  1.00
   NELECT =     458.0000    total number of electrons
   NUPDOWN=      -1.0000    fix difference up-down

 DOS related values:
   EMIN   =  10.00;   EMAX   =-10.00  energy-range for DOS
   EFERMI =   0.00
   ISMEAR =     0;   SIGMA  =   0.05  broadening in eV -4-tet -1-fermi 0-gaus

 Electronic relaxation 2 (details)
   IALGO  =     58    algorithm
   LDIAG  =      T    sub-space diagonalisation (order eigenvalues)
   LSUBROT=      F    optimize rotation matrix (better conditioning)
   TURBO    =      0    0=normal 1=particle mesh
   IRESTART =      0    0=no restart 2=restart with 2 vectors
   NREBOOT  =      0    no. of reboots
   NMIN     =      0    reboot dimension
   EREF     =   0.00    reference energy to select bands
   IMIX   =      4    mixing-type and parameters
     AMIX     =   0.40;   BMIX     =  1.00
     AMIX_MAG =   1.60;   BMIX_MAG =  1.00
     AMIN     =   0.10
     WC   =   100.;   INIMIX=   1;  MIXPRE=   1;  MAXMIX= -45

 Intra band minimization:
   WEIMIN = 0.0000     energy-eigenvalue tresh-hold
   EBREAK =  0.78E-09  absolut break condition
   DEPER  =   0.30     relativ break condition  

   TIME   =   0.40     timestep for ELM

  volume/ion in A,a.u.               =      23.03       155.40
  Fermi-wavevector in a.u.,A,eV,Ry     =   1.097571  2.074108 16.390423  1.204662
  Thomas-Fermi vector in A             =   2.233933

 Write flags
   LWAVE        =      F    write WAVECAR
   LDOWNSAMPLE  =      F    k-point downsampling of WAVECAR
   LCHARG       =      F    write CHGCAR
   LVTOT        =      F    write LOCPOT, total local potential
   LVHAR        =      F    write LOCPOT, Hartree potential only
   LELF         =      F    write electronic localiz. function (ELF)
   LORBIT       =      0    0 simple, 1 ext, 2 COOP (PROOUT), +10 PAW based schemes


 Dipole corrections
   LMONO  =      F    monopole corrections only (constant potential shift)
   LDIPOL =      T    correct potential (dipole corrections)
   IDIPOL =      3    1-x, 2-y, 3-z, 4-all directions 
   EPSILON=  1.0000000 bulk dielectric constant

 Exchange correlation treatment:
   GGA     =    RE    GGA type
   LEXCH   =    40    internal setting for exchange type
   LIBXC   =     F    Libxc                    
   VOSKOWN =     0    Vosko Wilk Nusair interpolation
   LHFCALC =     F    Hartree Fock is set to
   LHFONE  =     F    Hartree Fock one center treatment
   AEXX    =    0.0000 exact exchange contribution

 vdW DFT:
   LUSE_VDW   =     T    switch on vdW DFT
   Zab_VDW    =-.8491    correlation parameter
   PARAM1     =0.1234
   PARAM2     =1.0000
   PARAM3     =0.0000
   -- rVV10 --
   BPARAM     = 6.3000
   CPARAM     = 0.0093

 Linear response parameters
   LEPSILON=     F    determine dielectric tensor
   LRPA    =     F    only Hartree local field effects (RPA)
   LNABLA  =     F    use nabla operator in PAW spheres
   LVEL    =     F    velocity operator in full k-point grid
   CSHIFT  =0.1000    complex shift for real part using Kramers Kronig
   OMEGAMAX=  -1.0    maximum frequency
   DEG_THRESHOLD= 0.2000000E-02 threshold for treating states as degnerate
   RTIME   =   -0.100 relaxation time in fs
  (WPLASMAI=    0.000 imaginary part of plasma frequency in eV, 0.658/RTIME)
   DFIELD  = 0.0000000 0.0000000 0.0000000 field for delta impulse in time

  Optional k-point grid parameters
   LKPOINTS_OPT  =     F    use optional k-point grid
   KPOINTS_OPT_MODE=     1    mode for optional k-point grid

 Orbital magnetization related:
   ORBITALMAG=     F  switch on orbital magnetization
   LCHIMAG   =     F  perturbation theory with respect to B field
   DQ        =  0.001000  dq finite difference perturbation B field
   LLRAUG    =     F  two centre corrections for induced B field



--------------------------------------------------------------------------------------------------------


 Static calculation
 charge density and potential will be updated during run
 non-spin polarized calculation
 Conjugate gradient for all bands (Freysoldt, et al. PRB 79, 241103 (2009))
 preconditioned conjugated gradient                                        
 perform sub-space diagonalisation
    before iterative eigenvector-optimisation
 modified Broyden-mixing scheme, WC =      100.0
 initial mixing is a Kerker type mixing with AMIX =  0.4000 and BMIX =      1.0000
 Hartree-type preconditioning will be used
 using additional bands           91
 reciprocal scheme for non local part
 use partial core corrections
 no Harris-corrections to forces 
 use gradient corrections 
 use of overlap-Matrix (Vanderbilt PP)
 Gauss-broadening in eV      SIGMA  =   0.05


--------------------------------------------------------------------------------------------------------


  energy-cutoff  :      600.00
  volume of cell :     1519.82
      direct lattice vectors                 reciprocal lattice vectors
     8.440984654  0.000000000  0.000000000     0.118469591  0.000000000  0.000000000
     0.000000000  8.440984654  0.000000000     0.000000000  0.118469591  0.000000000
     0.000000000  0.000000000 21.330738491     0.000000000  0.000000000  0.046880702

  length of vectors
     8.440984654  8.440984654 21.330738491     0.118469591  0.118469591  0.046880702



 k-points in units of 2pi/SCALE and weight: pymatgen v2020.8.13 with grid density = 
   0.00000000  0.00000000  0.00000000       0.250
   0.05923480  0.00000000  0.00000000       0.500
   0.05923480  0.05923480  0.00000000       0.250

 k-points in reciprocal lattice and weights: pymatgen v2020.8.13 with grid density = 
   0.00000000  0.00000000  0.00000000       0.250
   0.50000000  0.00000000  0.00000000       0.500
   0.50000000  0.50000000  0.00000000       0.250

 position of ions in fractional coordinates (direct lattice) 
   0.50000000  0.50000000  0.76406826
   0.50000000  0.50000000  0.81783198
   0.00000000  0.75000000  0.35160527
   0.25000000  0.00000000  0.35160527
   0.00000000  0.00000000  0.45053509
   0.25000000  0.75000000  0.45053509
   0.00000000  0.74993927  0.55008324
   0.25006073  0.00000000  0.55008324
   0.00000000  0.00000000  0.64874531
   0.24985833  0.75014167  0.64856955
   0.00000000  0.25000000  0.35160527
   0.25000000  0.50000000  0.35160527
   0.00000000  0.50000000  0.45053509
   0.25000000  0.25000000  0.45053509
   0.00000000  0.25006073  0.55008324
   0.25037838  0.50000000  0.55021952
   0.00000000  0.50000000  0.64861528
   0.24985833  0.24985833  0.64856955
   0.50000000  0.75000000  0.35160527
   0.75000000  0.00000000  0.35160527
   0.50000000  0.00000000  0.45053509
   0.75000000  0.75000000  0.45053509
   0.50000000  0.74962162  0.55021952
   0.74993927  0.00000000  0.55008324
   0.50000000  0.00000000  0.64861528
   0.75014167  0.75014167  0.64856955
   0.50000000  0.25000000  0.35160527
   0.75000000  0.50000000  0.35160527
   0.50000000  0.50000000  0.45053509
   0.75000000  0.25000000  0.45053509
   0.50000000  0.25037838  0.55021952
   0.74962162  0.50000000  0.55021952
   0.50000000  0.50000000  0.65061696
   0.75014167  0.24985833  0.64856955
   0.00000000  0.75000000  0.45053509
   0.25000000  0.00000000  0.45053509
   0.00000000  0.00000000  0.35160527
   0.25000000  0.75000000  0.35160527
   0.00000000  0.75021853  0.65097926
   0.24978147  0.00000000  0.65097926
   0.00000000  0.00000000  0.54980989
   0.24994577  0.75005423  0.54985911
   0.00000000  0.25000000  0.45053509
   0.25000000  0.50000000  0.45053509
   0.00000000  0.50000000  0.35160527
   0.25000000  0.25000000  0.35160527
   0.00000000  0.24978147  0.65097926
   0.24882271  0.50000000  0.65088287
   0.00000000  0.50000000  0.54976267
   0.24994577  0.24994577  0.54985911
   0.50000000  0.75000000  0.45053509
   0.75000000  0.00000000  0.45053509
   0.50000000  0.00000000  0.35160527
   0.75000000  0.75000000  0.35160527
   0.50000000  0.75117729  0.65088287
   0.75021853  0.00000000  0.65097926
   0.50000000  0.00000000  0.54976267
   0.75005423  0.75005423  0.54985911
   0.50000000  0.25000000  0.45053509
   0.75000000  0.50000000  0.45053509
   0.50000000  0.50000000  0.35160527
   0.75000000  0.25000000  0.35160527
   0.50000000  0.24882271  0.65088287
   0.75117729  0.50000000  0.65088287
   0.50000000  0.50000000  0.55023136
   0.75005423  0.24994577  0.54985911

 position of ions in cartesian coordinates  (Angst):
   4.22049233  4.22049233 16.29814023
   4.22049233  4.22049233 17.44496005
   0.00000000  6.33073849  7.50000000
   2.11024616  0.00000000  7.50000000
   0.00000000  0.00000000  9.61024616
   2.11024616  6.33073849  9.61024616
   0.00000000  6.33022585 11.73368172
   2.11075880  0.00000000 11.73368172
   0.00000000  0.00000000 13.83821654
   2.10905031  6.33193435 13.83446740
   0.00000000  2.11024616  7.50000000
   2.11024616  4.22049233  7.50000000
   0.00000000  4.22049233  9.61024616
   2.11024616  2.11024616  9.61024616
   0.00000000  2.11075880 11.73368172
   2.11344006  4.22049233 11.73658877
   0.00000000  4.22049233 13.83544293
   2.10905031  2.10905031 13.83446740
   4.22049233  6.33073849  7.50000000
   6.33073849  0.00000000  7.50000000
   4.22049233  0.00000000  9.61024616
   6.33073849  6.33073849  9.61024616
   4.22049233  6.32754460 11.73658877
   6.33022585  0.00000000 11.73368172
   4.22049233  0.00000000 13.83544293
   6.33193435  6.33193435 13.83446740
   4.22049233  2.11024616  7.50000000
   6.33073849  4.22049233  7.50000000
   4.22049233  4.22049233  9.61024616
   6.33073849  2.11024616  9.61024616
   4.22049233  2.11344006 11.73658877
   6.32754460  4.22049233 11.73658877
   4.22049233  4.22049233 13.87814023
   6.33193435  2.10905031 13.83446740
   0.00000000  6.33073849  9.61024616
   2.11024616  0.00000000  9.61024616
   0.00000000  0.00000000  7.50000000
   2.11024616  6.33073849  7.50000000
   0.00000000  6.33258312 13.88586825
   2.10840153  0.00000000 13.88586825
   0.00000000  0.00000000 11.72785099
   2.10978841  6.33119624 11.72890095
   0.00000000  2.11024616  9.61024616
   2.11024616  4.22049233  9.61024616
   0.00000000  4.22049233  7.50000000
   2.11024616  2.11024616  7.50000000
   0.00000000  2.10840153 13.88586825
   2.10030867  4.22049233 13.88381232
   0.00000000  4.22049233 11.72684365
   2.10978841  2.10978841 11.72890095
   4.22049233  6.33073849  9.61024616
   6.33073849  0.00000000  9.61024616
   4.22049233  0.00000000  7.50000000
   6.33073849  6.33073849  7.50000000
   4.22049233  6.34067598 13.88381232
   6.33258312  0.00000000 13.88586825
   4.22049233  0.00000000 11.72684365
   6.33119624  6.33119624 11.72890095
   4.22049233  2.11024616  9.61024616
   6.33073849  4.22049233  9.61024616
   4.22049233  4.22049233  7.50000000
   6.33073849  2.11024616  7.50000000
   4.22049233  2.10030867 13.88381232
   6.34067598  4.22049233 13.88381232
   4.22049233  4.22049233 11.73684118
   6.33119624  2.10978841 11.72890095



--------------------------------------------------------------------------------------------------------


 k-point   1 :   0.0000 0.0000 0.0000  plane waves:   50745
 k-point   2 :   0.5000 0.0000 0.0000  plane waves:   50798
 k-point   3 :   0.5000 0.5000 0.0000  plane waves:   50752

 maximum and minimum number of plane-waves per node :     12720    12632

 maximum number of plane-waves:     50798
 maximum index in each direction: 
   IXMAX=   16   IYMAX=   16   IZMAX=   42
   IXMIN=  -17   IYMIN=  -17   IZMIN=  -42


 parallel 3D FFT for wavefunctions:
    minimum data exchange during FFTs selected (reduces bandwidth)
 parallel 3D FFT for charge:
    minimum data exchange during FFTs selected (reduces bandwidth)


 total amount of memory used by VASP MPI-rank0    78528. kBytes
=======================================================================

   base      :      30000. kBytes
   nonl-proj :      29343. kBytes
   fftplans  :       3857. kBytes
   grid      :       5885. kBytes
   one-center:        137. kBytes
   wavefun   :       9306. kBytes

     INWAV:  cpu time      0.0001: real time      0.0003
 Broyden mixing: mesh for mixing (old mesh)
   NGX = 33   NGY = 33   NGZ = 85
  (NGX  =108   NGY  =108   NGZ  =256)
  gives a total of  92565 points

 initial charge density was supplied:
 charge density of overlapping atoms calculated
 number of electron     458.0000000 magnetization 
 keeping initial charge density in first step


--------------------------------------------------------------------------------------------------------


 Maximum index for augmentation-charges          334 (set IRDMAX)


--------------------------------------------------------------------------------------------------------


 First call to EWALD:  gamma=   0.154
 Maximum number of real-space cells 4x 4x 2
 Maximum number of reciprocal cells 2x 2x 5

    FEWALD:  cpu time      0.0059: real time      0.0059


--------------------------------------- Iteration      1(   1)  ---------------------------------------


vdW kernel read from vdw_kernel.bindat
  0.0000  0.2424  0.5071  0.7962  1.1119  1.4567  1.8333  2.2446  2.6937  3.1842
  3.7199  4.3049  4.9438  5.6415  6.4036  7.2358  8.1446  9.1372 10.2212 11.4050
 12.6979 14.1099 15.6519 17.3360 19.1751 21.1837 23.3773 25.7729 28.3892 31.2465
 34.3669 37.7748 41.4965 45.5611 50.0000

    POTLOK:  cpu time      0.9666: real time      0.9690
    SETDIJ:  cpu time      0.1525: real time      0.1526
    TRIAL :  cpu time      5.3792: real time      5.4827
    CORREC:  cpu time      0.0010: real time      0.0012
    --------------------------------------------
      LOOP:  cpu time      6.5013: real time      6.6517

 eigenvalue-minimisations  :  2304
 total energy-change (2. order) : 0.4311453E+04  (-0.3069276E+05)
 number of electron     458.0000000 magnetization 
 augmentation part      458.0000000 magnetization 

 DIPCOR: dipole corrections for dipol
 direction  3 min pos     1,
 dipolmoment           0.000000      0.000000     -0.000253 electrons x Angstroem
 Tr[quadrupol]     -6318.707369

 energy correction for charged system         0.000000 eV
 dipol+quadrupol energy correction           -0.000000 eV
 added-field ion interaction          0.002044 eV  (added to PSCEN)


 Free energy of the ion-electron system (eV)
  ---------------------------------------------------
  alpha Z        PSCENC =       907.96614796
  Ewald energy   TEWEN  =    137192.05249650
  -Hartree energ DENC   =   -173290.76201167
  -exchange      EXHF   =         0.00000000
  -V(xc)+E(xc)   XCENC  =      1735.59390236
  PAW double counting   =     32391.11887895   -36187.02304673
  entropy T*S    EENTRO =        -0.02170784
  eigenvalues    EBANDS =     -6985.11344962
  atomic energy  EATOM  =     48547.64153090
  ---------------------------------------------------
  free energy    TOTEN  =      4311.45274081 eV

  energy without entropy =     4311.47444865  energy(sigma->0) =     4311.46359473


--------------------------------------------------------------------------------------------------------




--------------------------------------- Iteration      1(   2)  ---------------------------------------


    TRIAL :  cpu time      2.2431: real time      2.2435
    CORREC:  cpu time      0.0003: real time      0.0003
    --------------------------------------------
      LOOP:  cpu time      2.2509: real time      2.2580

 eigenvalue-minimisations  :  2304
 total energy-change (2. order) :-0.4303622E+04  (-0.4228562E+04)
 number of electron     458.0000000 magnetization 
 augmentation part      458.0000000 magnetization 

 DIPCOR: dipole corrections for dipol
 direction  3 min pos     1,
 dipolmoment           0.000000      0.000000     -0.000253 electrons x Angstroem
 Tr[quadrupol]     -6318.707369

 energy correction for charged system         0.000000 eV
 dipol+quadrupol energy correction           -0.000000 eV
 added-field ion interaction          0.002044 eV  (added to PSCEN)


 Free energy of the ion-electron system (eV)
  ---------------------------------------------------
  alpha Z        PSCENC =       907.96614796
  Ewald energy   TEWEN  =    137192.05249650
  -Hartree energ DENC   =   -173290.76201167
  -exchange      EXHF   =         0.00000000
  -V(xc)+E(xc)   XCENC  =      1735.59390236
  PAW double counting   =     32391.11887895   -36187.02304673
  entropy T*S    EENTRO =        -0.00000000
  eigenvalues    EBANDS =    -11288.75680736
  atomic energy  EATOM  =     48547.64153090
  ---------------------------------------------------
  free energy    TOTEN  =         7.83109091 eV

  energy without entropy =        7.83109091  energy(sigma->0) =        7.83109091


--------------------------------------------------------------------------------------------------------




--------------------------------------- Iteration      1(   3)  ---------------------------------------


    TRIAL :  cpu time      2.3637: real time      2.3639
    CORREC:  cpu time      0.0003: real time      0.0003
    --------------------------------------------
      LOOP:  cpu time      2.3696: real time      2.3784

 eigenvalue-minimisations  :  2304
 total energy-change (2. order) :-0.3136406E+03  (-0.3116922E+03)
 number of electron     458.0000000 magnetization 
 augmentation part      458.0000000 magnetization 

 DIPCOR: dipole corrections for dipol
 direction  3 min pos     1,
 dipolmoment           0.000000      0.000000     -0.000253 electrons x Angstroem
 Tr[quadrupol]     -6318.707369

 energy correction for charged system         0.000000 eV
 dipol+quadrupol energy correction           -0.000000 eV
 added-field ion interaction          0.002044 eV  (added to PSCEN)


 Free energy of the ion-electron system (eV)
  ---------------------------------------------------
  alpha Z        PSCENC =       907.96614796
  Ewald energy   TEWEN  =    137192.05249650
  -Hartree energ DENC   =   -173290.76201167
  -exchange      EXHF   =         0.00000000
  -V(xc)+E(xc)   XCENC  =      1735.59390236
  PAW double counting   =     32391.11887895   -36187.02304673
  entropy T*S    EENTRO =        -0.00000000
  eigenvalues    EBANDS =    -11602.39737139
  atomic energy  EATOM  =     48547.64153090
  ---------------------------------------------------
  free energy    TOTEN  =      -305.80947312 eV

  energy without entropy =     -305.80947312  energy(sigma->0) =     -305.80947312


--------------------------------------------------------------------------------------------------------




--------------------------------------- Iteration      1(   4)  ---------------------------------------


    TRIAL :  cpu time      2.3667: real time      2.3673
    CORREC:  cpu time      0.0003: real time      0.0003
    --------------------------------------------
      LOOP:  cpu time      2.3723: real time      2.3815

 eigenvalue-minimisations  :  2368
 total energy-change (2. order) :-0.5885106E+01  (-0.5878359E+01)
 number of electron     458.0000000 magnetization 
 augmentation part      458.0000000 magnetization 

 DIPCOR: dipole corrections for dipol
 direction  3 min pos     1,
 dipolmoment           0.000000      0.000000     -0.000253 electrons x Angstroem
 Tr[quadrupol]     -6318.707369

 energy correction for charged system         0.000000 eV
 dipol+quadrupol energy correction           -0.000000 eV
 added-field ion interaction          0.002044 eV  (added to PSCEN)


 Free energy of the ion-electron system (eV)
  ---------------------------------------------------
  alpha Z        PSCENC =       907.96614796
  Ewald energy   TEWEN  =    137192.05249650
  -Hartree energ DENC   =   -173290.76201167
  -exchange      EXHF   =         0.00000000
  -V(xc)+E(xc)   XCENC  =      1735.59390236
  PAW double counting   =     32391.11887895   -36187.02304673
  entropy T*S    EENTRO =        -0.00000000
  eigenvalues    EBANDS =    -11608.28247763
  atomic energy  EATOM  =     48547.64153090
  ---------------------------------------------------
  free energy    TOTEN  =      -311.69457936 eV

  energy without entropy =     -311.69457936  energy(sigma->0) =     -311.69457936


--------------------------------------------------------------------------------------------------------




--------------------------------------- Iteration      1(   5)  ---------------------------------------


    TRIAL :  cpu time      2.1376: real time      2.1377
    CORREC:  cpu time      0.0007: real time      0.0007
    CHARGE:  cpu time      0.0745: real time      0.0745
    --------------------------------------------
      LOOP:  cpu time      2.2174: real time      2.2269

 eigenvalue-minimisations  :  2304
 total energy-change (2. order) :-0.7435673E-01  (-0.7435431E-01)
 number of electron     457.9999401 magnetization 
 augmentation part      160.5735851 magnetization 

 DIPCOR: dipole corrections for dipol
 direction  3 min pos     1,
 dipolmoment           0.000000      0.000000     -0.000253 electrons x Angstroem
 Tr[quadrupol]     -6318.707369

 energy correction for charged system         0.000000 eV
 dipol+quadrupol energy correction           -0.000000 eV
 added-field ion interaction          0.002044 eV  (added to PSCEN)


 Free energy of the ion-electron system (eV)
  ---------------------------------------------------
  alpha Z        PSCENC =       907.96614796
  Ewald energy   TEWEN  =    137192.05249650
  -Hartree energ DENC   =   -173290.76201167
  -exchange      EXHF   =         0.00000000
  -V(xc)+E(xc)   XCENC  =      1735.59390236
  PAW double counting   =     32391.11887895   -36187.02304673
  entropy T*S    EENTRO =        -0.00000000
  eigenvalues    EBANDS =    -11608.35683437
  atomic energy  EATOM  =     48547.64153090
  ---------------------------------------------------
  free energy    TOTEN  =      -311.76893610 eV

  energy without entropy =     -311.76893610  energy(sigma->0) =     -311.76893610


--------------------------------------------------------------------------------------------------------




--------------------------------------- Iteration      1(   6)  ---------------------------------------


    POTLOK:  cpu time      0.3184: real time      0.3185
    SETDIJ:  cpu time      0.1876: real time      0.1876
    TRIAL :  cpu time      0.6705: real time      0.6712
    CORREC:  cpu time      0.8133: real time      0.8138
    CHARGE:  cpu time      0.0547: real time      0.0547
    --------------------------------------------
      LOOP:  cpu time      2.0581: real time      2.0597

 eigenvalue-minimisations  :     0
 total energy-change (2. order) : 0.2025875E+03  (-0.1135210E+03)
 number of electron     457.9999284 magnetization 
 augmentation part      157.2120443 magnetization 

 DIPCOR: dipole corrections for dipol
 direction  3 min pos     1,
 dipolmoment           0.000000      0.000000      0.219725 electrons x Angstroem
 Tr[quadrupol]     -6352.330573

 energy correction for charged system         0.000000 eV
 dipol+quadrupol energy correction           -0.002874 eV
 added-field ion interaction         -1.773652 eV  (added to PSCEN)


 Free energy of the ion-electron system (eV)
  ---------------------------------------------------
  alpha Z        PSCENC =       904.05772911
  Ewald energy   TEWEN  =    137192.05249650
  -Hartree energ DENC   =   -177311.57491342
  -exchange      EXHF   =         0.00000000
  -V(xc)+E(xc)   XCENC  =      1872.30598188
  PAW double counting   =     37227.88127415   -40995.95577235
  entropy T*S    EENTRO =        -0.00000000
  eigenvalues    EBANDS =     -7545.58974470
  atomic energy  EATOM  =     48547.64153090
  ---------------------------------------------------
  free energy    TOTEN  =      -109.18141793 eV

  energy without entropy =     -109.18141793  energy(sigma->0) =     -109.18141793


--------------------------------------------------------------------------------------------------------




--------------------------------------- Iteration      1(   7)  ---------------------------------------


    POTLOK:  cpu time      0.3143: real time      0.3143
    SETDIJ:  cpu time      0.1874: real time      0.1874
    TRIAL :  cpu time      0.6015: real time      0.6015
    CORREC:  cpu time      0.8065: real time      0.8066
    CHARGE:  cpu time      0.0555: real time      0.0555
    --------------------------------------------
      LOOP:  cpu time      1.9694: real time      1.9795

 eigenvalue-minimisations  :     0
 total energy-change (2. order) :-0.1140898E+03  (-0.7959152E+01)
 number of electron     457.9999272 magnetization 
 augmentation part      155.2943159 magnetization 

 DIPCOR: dipole corrections for dipol
 direction  3 min pos     1,
 dipolmoment           0.000000      0.000000      0.186139 electrons x Angstroem
 Tr[quadrupol]     -6359.673289

 energy correction for charged system         0.000000 eV
 dipol+quadrupol energy correction           -0.002063 eV
 added-field ion interaction         -1.502537 eV  (added to PSCEN)


 Free energy of the ion-electron system (eV)
  ---------------------------------------------------
  alpha Z        PSCENC =       905.91974224
  Ewald energy   TEWEN  =    137192.05249650
  -Hartree energ DENC   =   -175301.02804145
  -exchange      EXHF   =         0.00000000
  -V(xc)+E(xc)   XCENC  =      1796.40152378
  PAW double counting   =     36011.72702568   -39843.43137972
  entropy T*S    EENTRO =        -0.00000000
  eigenvalues    EBANDS =     -9532.55411552
  atomic energy  EATOM  =     48547.64153090
  ---------------------------------------------------
  free energy    TOTEN  =      -223.27121759 eV

  energy without entropy =     -223.27121759  energy(sigma->0) =     -223.27121759


--------------------------------------------------------------------------------------------------------




--------------------------------------- Iteration      1(   8)  ---------------------------------------


    POTLOK:  cpu time      0.3106: real time      0.3106
    SETDIJ:  cpu time      0.2190: real time      0.2190
    TRIAL :  cpu time      0.6016: real time      0.6017
    CORREC:  cpu time      0.8076: real time      0.8081
    CHARGE:  cpu time      0.0542: real time      0.0542
    --------------------------------------------
      LOOP:  cpu time      2.0075: real time      2.0082

 eigenvalue-minimisations  :     0
 total energy-change (2. order) :-0.7987199E+01  (-0.4959852E+01)
 number of electron     457.9999254 magnetization 
 augmentation part      155.4276709 magnetization 

 DIPCOR: dipole corrections for dipol
 direction  3 min pos     1,
 dipolmoment           0.000000      0.000000      0.110291 electrons x Angstroem
 Tr[quadrupol]     -6358.059092

 energy correction for charged system         0.000000 eV
 dipol+quadrupol energy correction           -0.000724 eV
 added-field ion interaction         -0.890282 eV  (added to PSCEN)


 Free energy of the ion-electron system (eV)
  ---------------------------------------------------
  alpha Z        PSCENC =       906.67048121
  Ewald energy   TEWEN  =    137192.05249650
  -Hartree energ DENC   =   -175250.07024448
  -exchange      EXHF   =         0.00000000
  -V(xc)+E(xc)   XCENC  =      1786.91714369
  PAW double counting   =     35913.52145748   -39676.36309333
  entropy T*S    EENTRO =        -0.00000000
  eigenvalues    EBANDS =     -9651.62818874
  atomic energy  EATOM  =     48547.64153090
  ---------------------------------------------------
  free energy    TOTEN  =      -231.25841678 eV

  energy without entropy =     -231.25841678  energy(sigma->0) =     -231.25841678


--------------------------------------------------------------------------------------------------------




--------------------------------------- Iteration      1(   9)  ---------------------------------------


    POTLOK:  cpu time      0.3144: real time      0.3144
    SETDIJ:  cpu time      0.1857: real time      0.1857
    TRIAL :  cpu time      0.6014: real time      0.6014
    CORREC:  cpu time      0.7950: real time      0.7951
    CHARGE:  cpu time      0.0543: real time      0.0543
    --------------------------------------------
      LOOP:  cpu time      1.9565: real time      1.9653

 eigenvalue-minimisations  :     0
 total energy-change (2. order) :-0.4817122E+01  (-0.1820590E+01)
 number of electron     457.9999254 magnetization 
 augmentation part      155.3975006 magnetization 

 DIPCOR: dipole corrections for dipol
 direction  3 min pos     1,
 dipolmoment           0.000000      0.000000      0.127811 electrons x Angstroem
 Tr[quadrupol]     -6348.501121

 energy correction for charged system         0.000000 eV
 dipol+quadrupol energy correction           -0.000972 eV
 added-field ion interaction         -1.031709 eV  (added to PSCEN)


 Free energy of the ion-electron system (eV)
  ---------------------------------------------------
  alpha Z        PSCENC =       907.28188676
  Ewald energy   TEWEN  =    137192.05249650
  -Hartree energ DENC   =   -175084.10670331
  -exchange      EXHF   =         0.00000000
  -V(xc)+E(xc)   XCENC  =      1786.01810162
  PAW double counting   =     35822.56932681   -39625.55366231
  entropy T*S    EENTRO =        -0.00000000
  eigenvalues    EBANDS =     -9781.97851589
  atomic energy  EATOM  =     48547.64153090
  ---------------------------------------------------
  free energy    TOTEN  =      -236.07553892 eV

  energy without entropy =     -236.07553892  energy(sigma->0) =     -236.07553892


--------------------------------------------------------------------------------------------------------




--------------------------------------- Iteration      1(  10)  ---------------------------------------


    POTLOK:  cpu time      0.3142: real time      0.3143
    SETDIJ:  cpu time      0.1822: real time      0.1822
    TRIAL :  cpu time      0.6020: real time      0.6020
    CORREC:  cpu time      0.8091: real time      0.8091
    CHARGE:  cpu time      0.0540: real time      0.0540
    --------------------------------------------
      LOOP:  cpu time      1.9755: real time      1.9757

 eigenvalue-minimisations  :     0
 total energy-change (2. order) :-0.1855486E+01  (-0.6463273E+00)
 number of electron     457.9999261 magnetization 
 augmentation part      155.3475704 magnetization 

 DIPCOR: dipole corrections for dipol
 direction  3 min pos     1,
 dipolmoment           0.000000      0.000000      0.156453 electrons x Angstroem
 Tr[quadrupol]     -6348.212829

 energy correction for charged system         0.000000 eV
 dipol+quadrupol energy correction           -0.001457 eV
 added-field ion interaction         -1.262910 eV  (added to PSCEN)


 Free energy of the ion-electron system (eV)
  ---------------------------------------------------
  alpha Z        PSCENC =       907.02381566
  Ewald energy   TEWEN  =    137192.05249650
  -Hartree energ DENC   =   -174874.03575726
  -exchange      EXHF   =         0.00000000
  -V(xc)+E(xc)   XCENC  =      1783.87144603
  PAW double counting   =     35709.58902061   -39517.66533084
  entropy T*S    EENTRO =        -0.00000000
  eigenvalues    EBANDS =     -9986.40824686
  atomic energy  EATOM  =     48547.64153090
  ---------------------------------------------------
  free energy    TOTEN  =      -237.93102527 eV

  energy without entropy =     -237.93102527  energy(sigma->0) =     -237.93102527


--------------------------------------------------------------------------------------------------------




--------------------------------------- Iteration      1(  11)  ---------------------------------------


    POTLOK:  cpu time      0.3095: real time      0.3095
    SETDIJ:  cpu time      0.1906: real time      0.1906
    TRIAL :  cpu time      0.6000: real time      0.6000
    CORREC:  cpu time      0.7962: real time      0.7963
    CHARGE:  cpu time      0.0541: real time      0.0542
    --------------------------------------------
      LOOP:  cpu time      1.9561: real time      1.9649

 eigenvalue-minimisations  :     0
 total energy-change (2. order) :-0.6477959E+00  (-0.2553389E+00)
 number of electron     457.9999267 magnetization 
 augmentation part      155.4709306 magnetization 

 DIPCOR: dipole corrections for dipol
 direction  3 min pos     1,
 dipolmoment           0.000000      0.000000      0.148213 electrons x Angstroem
 Tr[quadrupol]     -6349.466879

 energy correction for charged system         0.000000 eV
 dipol+quadrupol energy correction           -0.001308 eV
 added-field ion interaction         -1.196392 eV  (added to PSCEN)


 Free energy of the ion-electron system (eV)
  ---------------------------------------------------
  alpha Z        PSCENC =       906.75121894
  Ewald energy   TEWEN  =    137192.05249650
  -Hartree energ DENC   =   -174810.55983655
  -exchange      EXHF   =         0.00000000
  -V(xc)+E(xc)   XCENC  =      1782.86788260
  PAW double counting   =     35651.17239728   -39449.47646242
  entropy T*S    EENTRO =        -0.00000000
  eigenvalues    EBANDS =    -10059.02804843
  atomic energy  EATOM  =     48547.64153090
  ---------------------------------------------------
  free energy    TOTEN  =      -238.57882117 eV

  energy without entropy =     -238.57882117  energy(sigma->0) =     -238.57882117


--------------------------------------------------------------------------------------------------------




--------------------------------------- Iteration      1(  12)  ---------------------------------------


    POTLOK:  cpu time      0.3092: real time      0.3092
    SETDIJ:  cpu time      0.1967: real time      0.1967
    TRIAL :  cpu time      0.6003: real time      0.6003
    CORREC:  cpu time      0.7957: real time      0.7957
    CHARGE:  cpu time      0.0543: real time      0.0543
    --------------------------------------------
      LOOP:  cpu time      1.9608: real time      1.9709

 eigenvalue-minimisations  :     0
 total energy-change (2. order) :-0.2552826E+00  (-0.9893181E-01)
 number of electron     457.9999268 magnetization 
 augmentation part      155.6001567 magnetization 

 DIPCOR: dipole corrections for dipol
 direction  3 min pos     1,
 dipolmoment           0.000000      0.000000      0.139794 electrons x Angstroem
 Tr[quadrupol]     -6350.498595

 energy correction for charged system         0.000000 eV
 dipol+quadrupol energy correction           -0.001163 eV
 added-field ion interaction         -1.128435 eV  (added to PSCEN)


 Free energy of the ion-electron system (eV)
  ---------------------------------------------------
  alpha Z        PSCENC =       906.76580875
  Ewald energy   TEWEN  =    137192.05249650
  -Hartree energ DENC   =   -174850.02284863
  -exchange      EXHF   =         0.00000000
  -V(xc)+E(xc)   XCENC  =      1783.33626887
  PAW double counting   =     35638.69788814   -39435.76521252
  entropy T*S    EENTRO =        -0.00000000
  eigenvalues    EBANDS =    -10021.54003575
  atomic energy  EATOM  =     48547.64153090
  ---------------------------------------------------
  free energy    TOTEN  =      -238.83410374 eV

  energy without entropy =     -238.83410374  energy(sigma->0) =     -238.83410374


--------------------------------------------------------------------------------------------------------




--------------------------------------- Iteration      1(  13)  ---------------------------------------


    POTLOK:  cpu time      0.3110: real time      0.3110
    SETDIJ:  cpu time      0.1895: real time      0.1895
    TRIAL :  cpu time      0.5999: real time      0.6000
    CORREC:  cpu time      0.8078: real time      0.8078
    CHARGE:  cpu time      0.0538: real time      0.0538
    --------------------------------------------
      LOOP:  cpu time      1.9667: real time      1.9762

 eigenvalue-minimisations  :     0
 total energy-change (2. order) :-0.9892999E-01  (-0.4927405E-01)
 number of electron     457.9999268 magnetization 
 augmentation part      155.6439150 magnetization 

 DIPCOR: dipole corrections for dipol
 direction  3 min pos     1,
 dipolmoment           0.000000      0.000000      0.138229 electrons x Angstroem
 Tr[quadrupol]     -6351.057965

 energy correction for charged system         0.000000 eV
 dipol+quadrupol energy correction           -0.001137 eV
 added-field ion interaction         -1.115801 eV  (added to PSCEN)


 Free energy of the ion-electron system (eV)
  ---------------------------------------------------
  alpha Z        PSCENC =       906.83438843
  Ewald energy   TEWEN  =    137192.05249650
  -Hartree energ DENC   =   -174891.87444719
  -exchange      EXHF   =         0.00000000
  -V(xc)+E(xc)   XCENC  =      1783.78144589
  PAW double counting   =     35637.66809055   -39438.64695997
  entropy T*S    EENTRO =        -0.00000000
  eigenvalues    EBANDS =     -9976.38957883
  atomic energy  EATOM  =     48547.64153090
  ---------------------------------------------------
  free energy    TOTEN  =      -238.93303373 eV

  energy without entropy =     -238.93303373  energy(sigma->0) =     -238.93303373


--------------------------------------------------------------------------------------------------------




--------------------------------------- Iteration      1(  14)  ---------------------------------------


    POTLOK:  cpu time      0.3101: real time      0.3108
    SETDIJ:  cpu time      0.1891: real time      0.1891
    TRIAL :  cpu time      0.6004: real time      0.6005
    CORREC:  cpu time      0.7996: real time      0.7996
    CHARGE:  cpu time      0.0541: real time      0.0542
    --------------------------------------------
      LOOP:  cpu time      1.9586: real time      1.9685

 eigenvalue-minimisations  :     0
 total energy-change (2. order) :-0.4933057E-01  (-0.2339929E-01)
 number of electron     457.9999267 magnetization 
 augmentation part      155.6192815 magnetization 

 DIPCOR: dipole corrections for dipol
 direction  3 min pos     1,
 dipolmoment           0.000000      0.000000      0.140027 electrons x Angstroem
 Tr[quadrupol]     -6351.449923

 energy correction for charged system         0.000000 eV
 dipol+quadrupol energy correction           -0.001167 eV
 added-field ion interaction         -1.130315 eV  (added to PSCEN)


 Free energy of the ion-electron system (eV)
  ---------------------------------------------------
  alpha Z        PSCENC =       906.84852738
  Ewald energy   TEWEN  =    137192.05249650
  -Hartree energ DENC   =   -174911.25986183
  -exchange      EXHF   =         0.00000000
  -V(xc)+E(xc)   XCENC  =      1783.81088145
  PAW double counting   =     35636.68544391   -39439.73677672
  entropy T*S    EENTRO =        -0.00000000
  eigenvalues    EBANDS =     -9955.02460588
  atomic energy  EATOM  =     48547.64153090
  ---------------------------------------------------
  free energy    TOTEN  =      -238.98236430 eV

  energy without entropy =     -238.98236430  energy(sigma->0) =     -238.98236430


--------------------------------------------------------------------------------------------------------




--------------------------------------- Iteration      1(  15)  ---------------------------------------


[...]
    269       6.6308      0.00000
    270       6.6308      0.00000
    271       6.6838      0.00000
    272       6.8053      0.00000
    273       7.0994      0.00000
    274       7.0994      0.00000
    275       7.4058      0.00000
    276       7.7426      0.00000
    277       7.7426      0.00000
    278       7.7489      0.00000
    279       7.8567      0.00000
    280       8.1262      0.00000
    281       8.1332      0.00000
    282       8.1367      0.00000
    283       8.1369      0.00000
    284       8.1446      0.00000
    285       8.1508      0.00000
    286       8.1594      0.00000
    287       8.1607      0.00000
    288       8.2513      0.00000
    289       8.3121      0.00000
    290       8.3225      0.00000
    291       8.3634      0.00000
    292       8.3960      0.00000
    293       8.4648      0.00000
    294       8.5426      0.00000
    295       8.5550      0.00000
    296       8.6006      0.00000
    297       8.6056      0.00000
    298       8.6149      0.00000
    299       8.6164      0.00000
    300       8.6748      0.00000
    301       8.9153      0.00000
    302       8.9318      0.00000
    303       8.9871      0.00000
    304       9.0039      0.00000
    305       9.3667      0.00000
    306       9.4189      0.00000
    307       9.4685      0.00000
    308       9.4829      0.00000
    309       9.5171      0.00000
    310       9.6335      0.00000
    311       9.6651      0.00000
    312       9.7033      0.00000
    313       9.7521      0.00000
    314       9.8062      0.00000
    315       9.8953      0.00000
    316       9.9065      0.00000
    317      10.2449      0.00000
    318      10.3181      0.00000
    319      10.4511      0.00000
    320      10.4677      0.00000


--------------------------------------------------------------------------------------------------------


 soft charge-density along one line, spin component           1
         0         1         2         3         4         5         6         7         8         9
 total charge-density along one line

 pseudopotential strength for first ion, spin component:           1
 10.255  13.637   0.000   0.022   0.000  -0.000  -0.062  -0.000
 13.637  18.132   0.000   0.028   0.000  -0.000  -0.081  -0.000
  0.000   0.000  -4.344  -0.000  -0.000   8.546   0.000   0.000
  0.022   0.028  -0.000  -4.333   0.000   0.000   8.486  -0.000
  0.000   0.000  -0.000   0.000  -4.344   0.000  -0.000   8.546
 -0.000  -0.000   8.546   0.000   0.000 -18.947  -0.000  -0.000
 -0.062  -0.081   0.000   8.486  -0.000  -0.000 -18.756   0.000
 -0.000  -0.000   0.000  -0.000   8.546  -0.000   0.000 -18.947
 total augmentation occupancy for first ion, spin component:           1
  7.081  -3.206   0.000   2.066  -0.000   0.000   0.373   0.000
 -3.206   1.867   0.000  -1.587   0.000   0.000  -0.225  -0.000
  0.000   0.000   0.831   0.000   0.000   0.058   0.000  -0.000
  2.066  -1.587   0.000   2.237   0.000   0.000   0.208   0.000
 -0.000   0.000   0.000   0.000   0.831   0.000  -0.000   0.058
  0.000   0.000   0.058   0.000   0.000   0.004   0.000   0.000
  0.373  -0.225   0.000   0.208  -0.000   0.000   0.028  -0.000
  0.000  -0.000  -0.000   0.000   0.058   0.000  -0.000   0.004


------------------------ aborting loop because EDIFF is reached ----------------------------------------


    FORLOC:  cpu time      0.0040: real time      0.0040
    FORNL :  cpu time      0.4189: real time      0.4189
    STRESS:  cpu time      1.3346: real time      1.3350
    FORCOR:  cpu time      0.3056: real time      0.3061
    OFIELD:  cpu time      0.0001: real time      0.0001

  FORCE on cell =-STRESS in cart. coord.  units (eV):
  Direction    XX          YY          ZZ          XY          YZ          ZX
  --------------------------------------------------------------------------------------
  Alpha Z   907.96410   907.96410   907.96410
  Ewald  157692.69773157692.69773************     0.00000     0.00000    -0.00000
  Hartree168072.73414168072.73414************    -0.00000    -0.00000    -0.00000
  E(xc)   -2568.30422 -2568.30422 -2568.94447    -0.00000    -0.00000    -0.00000
  Local  ************************335333.66081    -0.00000    -0.00000    -0.00000
  n-local -2831.80223 -2832.57572 -2861.86167    -0.00000     0.00000     0.00001
  augment  1084.08515  1084.08515  1074.50538     0.00000    -0.00000    -0.00000
  Kinetic  7519.54007  7521.99218  7536.15324    -0.00000    -0.00000    -0.00001
  Fock        0.00000     0.00000     0.00000     0.00000     0.00000     0.00000
  -------------------------------------------------------------------------------------
  Total      -8.73974    -8.73974    12.38142     0.00000     0.00000     0.00000
  in kB      -9.21334    -9.21334    13.05236     0.00000     0.00000     0.00000
  external pressure =       -1.79 kB  Pullay stress =        0.00 kB


 VOLUME and BASIS-vectors are now :
 -----------------------------------------------------------------------------
  energy-cutoff  :      600.00
  volume of cell :     1519.82
      direct lattice vectors                 reciprocal lattice vectors
     8.440984654  0.000000000  0.000000000     0.118469591  0.000000000  0.000000000
     0.000000000  8.440984654  0.000000000     0.000000000  0.118469591  0.000000000
     0.000000000  0.000000000 21.330738491     0.000000000  0.000000000  0.046880702

  length of vectors
     8.440984654  8.440984654 21.330738491     0.118469591  0.118469591  0.046880702


 FORCES acting on ions:
    Electron-Ion                     Ewald-Force                    Non-Local-Force
 -----------------------------------------------------------------------------------------------
   0.113E-12 0.135E-13 -.842E+03   -.178E-14 0.178E-14 0.815E+03   0.000E+00 -.106E-21 0.272E+02
   0.479E-12 0.213E-11 -.145E+04   0.799E-14 -.577E-14 0.151E+04   0.000E+00 0.132E-22 -.600E+02
   -.514E-13 -.131E+00 0.208E+04   0.560E-13 0.131E+00 -.207E+04   0.331E-23 -.145E-03 -.647E+01
   0.131E+00 0.350E-12 0.208E+04   -.131E+00 0.671E-13 -.207E+04   0.145E-03 -.265E-22 -.647E+01
   -.724E-13 0.606E-13 0.713E+03   -.150E-10 0.150E-10 -.714E+03   0.331E-23 0.496E-23 0.459E+00
   0.486E+00 -.486E+00 0.714E+03   -.481E+00 0.481E+00 -.715E+03   -.281E-02 0.281E-02 0.483E+00
   -.500E-13 -.289E+01 -.642E+03   0.157E-11 0.287E+01 0.643E+03   0.000E+00 0.202E-01 -.108E+00
   0.289E+01 -.242E-12 -.642E+03   -.287E+01 -.151E-11 0.643E+03   -.202E-01 -.562E-22 -.108E+00
   -.557E-13 0.640E-12 -.200E+04   0.444E-12 -.416E-12 0.200E+04   0.000E+00 0.000E+00 0.537E+01
   0.183E+02 -.183E+02 -.198E+04   -.184E+02 0.184E+02 0.198E+04   0.855E-01 -.855E-01 0.547E+01
   -.490E-13 0.131E+00 0.208E+04   -.277E-12 -.131E+00 -.207E+04   0.794E-22 0.145E-03 -.647E+01
   0.126E+00 0.119E-11 0.208E+04   -.124E+00 0.131E-10 -.207E+04   -.158E-02 0.132E-22 -.647E+01
   -.712E-13 0.112E-11 0.715E+03   -.165E-10 0.000E+00 -.715E+03   -.265E-22 -.993E-23 0.417E+00
   0.486E+00 0.486E+00 0.714E+03   -.481E+00 -.481E+00 -.715E+03   -.281E-02 -.281E-02 0.483E+00
   -.665E-13 0.289E+01 -.642E+03   0.304E-11 -.287E+01 0.643E+03   0.397E-22 -.202E-01 -.108E+00
   0.422E+01 0.810E-12 -.635E+03   -.415E+01 0.178E-14 0.636E+03   -.768E-01 0.000E+00 -.233E+00
   -.378E-13 0.690E-12 -.199E+04   -.355E-13 -.995E-13 0.198E+04   0.000E+00 0.000E+00 0.539E+01
   0.183E+02 0.183E+02 -.198E+04   -.184E+02 -.184E+02 0.198E+04   0.855E-01 0.855E-01 0.547E+01
   0.925E-12 -.126E+00 0.208E+04   -.129E-10 0.124E+00 -.207E+04   0.000E+00 0.158E-02 -.647E+01
   -.131E+00 0.335E-12 0.208E+04   0.131E+00 0.471E-13 -.207E+04   -.145E-03 -.529E-22 -.647E+01
   0.829E-12 -.391E-12 0.715E+03   0.145E-11 0.150E-10 -.715E+03   0.000E+00 0.000E+00 0.417E+00
   -.486E+00 -.486E+00 0.714E+03   0.481E+00 0.481E+00 -.715E+03   0.281E-02 0.281E-02 0.483E+00
   0.817E-12 -.422E+01 -.635E+03   -.141E-11 0.415E+01 0.636E+03   0.298E-22 0.768E-01 -.233E+00
   -.289E+01 -.152E-12 -.642E+03   0.287E+01 -.156E-11 0.643E+03   0.202E-01 0.265E-22 -.108E+00
   0.907E-12 0.290E-12 -.199E+04   0.782E-13 -.355E-14 0.198E+04   -.993E-23 0.000E+00 0.539E+01
   -.183E+02 -.183E+02 -.198E+04   0.184E+02 0.184E+02 0.198E+04   -.855E-01 -.855E-01 0.547E+01
   0.915E-12 0.126E+00 0.208E+04   -.131E-10 -.124E+00 -.207E+04   0.132E-22 -.158E-02 -.647E+01
   -.126E+00 0.707E-12 0.208E+04   0.124E+00 0.131E-10 -.207E+04   0.158E-02 0.000E+00 -.647E+01
   0.866E-12 0.170E-11 0.715E+03   -.782E-13 0.355E-14 -.715E+03   0.000E+00 0.000E+00 0.560E+00
   -.486E+00 0.486E+00 0.714E+03   0.481E+00 -.481E+00 -.715E+03   0.281E-02 -.281E-02 0.483E+00
   0.815E-12 0.422E+01 -.635E+03   -.284E-13 -.415E+01 0.636E+03   0.000E+00 -.768E-01 -.233E+00
   -.422E+01 -.196E-11 -.635E+03   0.415E+01 0.000E+00 0.636E+03   0.768E-01 0.000E+00 -.233E+00
   0.903E-12 0.832E-12 -.191E+04   -.426E-13 -.391E-13 0.191E+04   0.331E-23 0.000E+00 0.362E+01
   -.183E+02 0.183E+02 -.198E+04   0.184E+02 -.184E+02 0.198E+04   -.855E-01 0.855E-01 0.547E+01
   -.614E-13 -.414E+00 0.535E+03   0.409E-13 0.408E+00 -.535E+03   0.000E+00 0.836E-02 -.736E-01
   0.414E+00 0.177E-12 0.535E+03   -.408E+00 0.391E-13 -.535E+03   -.836E-02 0.000E+00 -.736E-01
   -.604E-13 0.458E-12 0.156E+04   0.853E-11 -.844E-11 -.156E+04   -.132E-22 0.000E+00 0.355E+01
   0.958E-01 -.958E-01 0.156E+04   -.950E-01 0.950E-01 -.156E+04   -.109E-02 0.109E-02 0.355E+01
   -.533E-13 -.741E+01 -.152E+04   -.871E-12 0.735E+01 0.153E+04   0.132E-21 0.583E-01 -.509E+01
   0.741E+01 -.128E-12 -.152E+04   -.735E+01 0.881E-12 0.153E+04   -.583E-01 -.529E-22 -.509E+01
   -.482E-13 0.448E-12 -.478E+03   -.853E-13 0.639E-13 0.478E+03   0.000E+00 -.331E-23 0.256E+00
   0.262E+01 -.262E+01 -.473E+03   -.261E+01 0.261E+01 0.473E+03   -.108E-01 0.108E-01 0.319E+00
   -.761E-13 0.414E+00 0.535E+03   0.142E-13 -.408E+00 -.535E+03   0.000E+00 -.836E-02 -.736E-01
   0.392E+00 0.798E-12 0.536E+03   -.419E+00 -.764E-11 -.535E+03   0.367E-01 -.265E-22 -.943E-01
   -.534E-13 0.104E-11 0.156E+04   0.845E-11 -.796E-12 -.156E+04   0.000E+00 0.000E+00 0.355E+01
   0.958E-01 0.958E-01 0.156E+04   -.950E-01 -.950E-01 -.156E+04   -.109E-02 -.109E-02 0.355E+01
   -.553E-13 0.741E+01 -.152E+04   -.774E-12 -.735E+01 0.153E+04   0.000E+00 -.583E-01 -.509E+01
   0.241E+02 0.451E-12 -.149E+04   -.237E+02 0.810E-11 0.150E+04   -.335E+00 0.529E-22 -.511E+01
   -.523E-13 0.648E-12 -.473E+03   -.741E-11 0.711E-14 0.473E+03   0.132E-22 0.000E+00 0.267E+00
   0.262E+01 0.262E+01 -.473E+03   -.261E+01 -.261E+01 0.473E+03   -.108E-01 -.108E-01 0.319E+00
   0.339E-12 -.392E+00 0.536E+03   0.764E-11 0.419E+00 -.535E+03   -.265E-22 -.367E-01 -.943E-01
   -.414E+00 0.180E-12 0.535E+03   0.408E+00 0.142E-13 -.535E+03   0.836E-02 -.662E-23 -.736E-01
   0.383E-12 0.290E-12 0.156E+04   0.845E-12 -.846E-11 -.156E+04   0.000E+00 0.000E+00 0.355E+01
   -.958E-01 -.958E-01 0.156E+04   0.950E-01 0.950E-01 -.156E+04   0.109E-02 0.109E-02 0.355E+01
   0.399E-12 -.241E+02 -.149E+04   -.816E-11 0.237E+02 0.150E+04   0.926E-22 0.335E+00 -.511E+01
   -.741E+01 -.673E-13 -.152E+04   0.735E+01 0.924E-12 0.153E+04   0.583E-01 -.529E-22 -.509E+01
   0.348E-12 -.109E-11 -.473E+03   -.711E-14 0.738E-11 0.473E+03   0.000E+00 0.000E+00 0.267E+00
   -.262E+01 -.262E+01 -.473E+03   0.261E+01 0.261E+01 0.473E+03   0.108E-01 0.108E-01 0.319E+00
   0.347E-12 0.392E+00 0.536E+03   0.763E-11 -.419E+00 -.535E+03   0.397E-22 0.367E-01 -.943E-01
   -.392E+00 0.172E-11 0.536E+03   0.419E+00 -.769E-11 -.535E+03   -.367E-01 -.199E-22 -.943E-01
   0.361E-12 0.205E-11 0.156E+04   0.824E-12 -.838E-12 -.156E+04   0.000E+00 -.106E-21 0.355E+01
   -.958E-01 0.958E-01 0.156E+04   0.950E-01 -.950E-01 -.156E+04   0.109E-02 -.109E-02 0.355E+01
   0.412E-12 0.241E+02 -.149E+04   -.820E-11 -.237E+02 0.150E+04   -.529E-22 -.335E+00 -.511E+01
   -.241E+02 -.211E-11 -.149E+04   0.237E+02 0.819E-11 0.150E+04   0.335E+00 0.000E+00 -.511E+01
   0.298E-12 0.350E-12 -.473E+03   -.497E-13 0.426E-13 0.473E+03   0.000E+00 0.662E-23 -.204E+00
   -.262E+01 0.262E+01 -.473E+03   0.261E+01 -.261E+01 0.473E+03   0.108E-01 -.108E-01 0.319E+00
 -----------------------------------------------------------------------------------------------
   0.265E-10 0.221E-10 0.517E+02   0.236E-12 -.132E-12 0.500E-11   0.121E-16 -.278E-16 -.517E+02


 POSITION                                       TOTAL-FORCE (eV/Angst)
 -----------------------------------------------------------------------------------
      4.22049      4.22049     16.29814         0.000000     -0.000000      0.311121
      4.22049      4.22049     17.44496         0.000000     -0.000000     -0.152498
      0.00000      6.33074      7.50000         0.000000     -0.000009      0.149458
      2.11025      0.00000      7.50000         0.000009     -0.000000      0.149458
      0.00000      0.00000      9.61025         0.000000     -0.000000      0.035942
      2.11025      6.33074      9.61025         0.001667     -0.001667      0.038519
      0.00000      6.33023     11.73368         0.000000     -0.001086      0.028996
      2.11076      0.00000     11.73368         0.001086     -0.000000      0.028996
      0.00000      0.00000     13.83822         0.000000     -0.000000      0.202895
      2.10905      6.33193     13.83447        -0.011992      0.011992      0.182423
      0.00000      2.11025      7.50000         0.000000      0.000009      0.149458
      2.11025      4.22049      7.50000         0.000634     -0.000000      0.149546
      0.00000      4.22049      9.61025         0.000000     -0.000000      0.045893
      2.11025      2.11025      9.61025         0.001667      0.001667      0.038519
      0.00000      2.11076     11.73368         0.000000      0.001086      0.028996
      2.11344      4.22049     11.73659        -0.006974     -0.000000      0.036632
      0.00000      4.22049     13.83544         0.000000     -0.000000      0.193107
      2.10905      2.10905     13.83447        -0.011992     -0.011992      0.182423
      4.22049      6.33074      7.50000         0.000000     -0.000634      0.149546
      6.33074      0.00000      7.50000        -0.000009     -0.000000      0.149458
      4.22049      0.00000      9.61025         0.000000     -0.000000      0.045893
      6.33074      6.33074      9.61025        -0.001667     -0.001667      0.038519
      4.22049      6.32754     11.73659         0.000000      0.006974      0.036632
      6.33023      0.00000     11.73368        -0.001086     -0.000000      0.028996
      4.22049      0.00000     13.83544         0.000000     -0.000000      0.193107
      6.33193      6.33193     13.83447         0.011992      0.011992      0.182423
      4.22049      2.11025      7.50000         0.000000      0.000634      0.149546
      6.33074      4.22049      7.50000        -0.000634     -0.000000      0.149546
      4.22049      4.22049      9.61025         0.000000     -0.000000      0.056345
      6.33074      2.11025      9.61025        -0.001667      0.001667      0.038519
      4.22049      2.11344     11.73659         0.000000     -0.006974      0.036632
      6.32754      4.22049     11.73659         0.006974     -0.000000      0.036632
      4.22049      4.22049     13.87814         0.000000     -0.000000      0.202062
      6.33193      2.10905     13.83447         0.011992     -0.011992      0.182423
      0.00000      6.33074      9.61025         0.000000      0.002437      0.071543
      2.11025      0.00000      9.61025        -0.002437     -0.000000      0.071543
      0.00000      0.00000      7.50000         0.000000     -0.000000     -0.561379
      2.11025      6.33074      7.50000        -0.000291      0.000291     -0.561144
      0.00000      6.33258     13.88587         0.000000     -0.001785      0.048038
      2.10840      0.00000     13.88587         0.001785     -0.000000      0.048038
      0.00000      0.00000     11.72785         0.000000     -0.000000      0.018091
      2.10979      6.33120     11.72890         0.002535     -0.002535      0.009875
      0.00000      2.11025      9.61025         0.000000     -0.002437      0.071543
      2.11025      4.22049      9.61025         0.009763     -0.000000      0.080584
      0.00000      4.22049      7.50000         0.000000     -0.000000     -0.561281
      2.11025      2.11025      7.50000        -0.000291     -0.000291     -0.561144
      0.00000      2.10840     13.88587         0.000000      0.001785      0.048038
      2.10031      4.22049     13.88381        -0.011828     -0.000000      0.030963
      0.00000      4.22049     11.72684         0.000000     -0.000000      0.011946
      2.10979      2.10979     11.72890         0.002535      0.002535      0.009875
      4.22049      6.33074      9.61025         0.000000     -0.009763      0.080584
      6.33074      0.00000      9.61025         0.002437     -0.000000      0.071543
      4.22049      0.00000      7.50000         0.000000     -0.000000     -0.561281
      6.33074      6.33074      7.50000         0.000291      0.000291     -0.561144
      4.22049      6.34068     13.88381         0.000000      0.011828      0.030963
      6.33258      0.00000     13.88587        -0.001785     -0.000000      0.048038
      4.22049      0.00000     11.72684         0.000000     -0.000000      0.011946
      6.33120      6.33120     11.72890        -0.002535     -0.002535      0.009875
      4.22049      2.11025      9.61025         0.000000      0.009763      0.080584
      6.33074      4.22049      9.61025        -0.009763     -0.000000      0.080584
      4.22049      4.22049      7.50000         0.000000     -0.000000     -0.561772
      6.33074      2.11025      7.50000         0.000291     -0.000291     -0.561144
      4.22049      2.10031     13.88381         0.000000     -0.011828      0.030963
      6.34068      4.22049     13.88381         0.011828     -0.000000      0.030963
      4.22049      4.22049     11.73684         0.000000     -0.000000      0.008135
      6.33120      2.10979     11.72890        -0.002535      0.002535      0.009875
 -----------------------------------------------------------------------------------
    total drift:                                0.000000      0.000000     -0.000238


--------------------------------------------------------------------------------------------------------



  FREE ENERGIE OF THE ION-ELECTRON SYSTEM (eV)
  ---------------------------------------------------
  free  energy   TOTEN  =      -239.02293346 eV

  energy  without entropy=     -239.02293346  energy(sigma->0) =     -239.02293346



--------------------------------------------------------------------------------------------------------


    POTLOK:  cpu time      0.5068: real time      0.5068


--------------------------------------------------------------------------------------------------------


     LOOP+:  cpu time     62.1899: real time     62.5988
    4ORBIT:  cpu time      0.0000: real time      0.0000

 total amount of memory used by VASP MPI-rank0    78528. kBytes
=======================================================================

   base      :      30000. kBytes
   nonl-proj :      29343. kBytes
   fftplans  :       3857. kBytes
   grid      :       5885. kBytes
   one-center:        137. kBytes
   wavefun   :       9306. kBytes

  
  
 General timing and accounting informations for this job:
 ========================================================
  
                  Total CPU time used (sec):       79.780
                            User time (sec):       77.878
                          System time (sec):        1.902
                         Elapsed time (sec):       85.382
  
                   Maximum memory used (kb):      269568.
                   Average memory used (kb):          N/A
  
                          Minor page faults:        32294
                          Major page faults:           51
                 Voluntary context switches:         7211
