 **********************************************************************
                          MRCC program system
 **********************************************************************
 
                              Written by
     Mihaly Kallay, Peter R. Nagy, David Mester, Laszlo Gyevi-Nagy,
        Jozsef Csoka, P. Bernat Szabo, Zoltan Rolik, Gyula Samu,
     Jozsef Csontos, Bence Hegely, Adam Ganyecz, Istvan Ladjanszki,
       Lorant Szegedy, Bence Ladoczki, Klara Petrov, Mate Farkas,
                    Pal D. Mezei, and Reka A. Horvath
 
        Department of Physical Chemistry and Materials Science
            Budapest University of Technology and Economics
                  Budapest P.O.Box 91, H-1521 Hungary
 
                              www.mrcc.hu
 
                      Release date: March 18, 2022

 ************************ 2023-04-25 23:54:09 *************************
 Executing minp...

 Reading input from MINP...
 
 Input file:
 
calc=DF-MP2
scftype=rhf
verbosity=3
mem=200GB
symm=off
unit=angs
scfiguess=small
scfmaxit=1000
scfalg=locfit1



charge=0
core=2

basis=special
aug-cc-pVTZ
aug-cc-pVTZ
bse_CVTZ
aug-cc-pVTZ
aug-cc-pVTZ
aug-cc-pVTZ
aug-cc-pVTZ
aug-cc-pVTZ
bse_CVTZ
bse_CVTZ
bse_CVTZ
bse_CVTZ
bse_CVTZ
bse_CVTZ
bse_CVTZ
bse_CVTZ
aug-cc-pVTZ
aug-cc-pVTZ
aug-cc-pVTZ
aug-cc-pVTZ

basis_sm=special
def2-SVP
def2-SVP
def2-SVP
def2-SVP
def2-SVP
def2-SVP
def2-SVP
def2-SVP
def2-SVP
def2-SVP
def2-SVP
def2-SVP
def2-SVP
def2-SVP
def2-SVP
def2-SVP
def2-SVP
def2-SVP
def2-SVP
def2-SVP

dfbasis_scf=special
def2-QZVPP-RI-JK
def2-QZVPP-RI-JK
def2-QZVPP-RI-JK
def2-QZVPP-RI-JK
def2-QZVPP-RI-JK
def2-QZVPP-RI-JK
def2-QZVPP-RI-JK
def2-QZVPP-RI-JK
def2-QZVPP-RI-JK
def2-QZVPP-RI-JK
def2-QZVPP-RI-JK
def2-QZVPP-RI-JK
def2-QZVPP-RI-JK
def2-QZVPP-RI-JK
def2-QZVPP-RI-JK
def2-QZVPP-RI-JK
def2-QZVPP-RI-JK
def2-QZVPP-RI-JK
def2-QZVPP-RI-JK
def2-QZVPP-RI-JK

dfbasis_cor=special
aug-cc-pVTZ-RI
aug-cc-pVTZ-RI
bse_CVTZ_mp2fit
aug-cc-pVTZ-RI
aug-cc-pVTZ-RI
aug-cc-pVTZ-RI
aug-cc-pVTZ-RI
aug-cc-pVTZ-RI
bse_CVTZ_mp2fit
bse_CVTZ_mp2fit
bse_CVTZ_mp2fit
bse_CVTZ_mp2fit
bse_CVTZ_mp2fit
bse_CVTZ_mp2fit
bse_CVTZ_mp2fit
bse_CVTZ_mp2fit
aug-cc-pVTZ-RI
aug-cc-pVTZ-RI
aug-cc-pVTZ-RI
aug-cc-pVTZ-RI

ecp=special
none
none
none
none
none
none
none
none
none
none
none
none
none
none
none
none
none
none
none
none

unit=angs
geom=xyz
20
C1 O1 Mg9 O9 ECP29
C     0.00000000000    0.00000000000    2.43329433571
O     0.00000000000    0.00000000000    3.58011415037
Mg    0.00000000000    0.00000000000   -0.00772802266
O    -2.12018425659    0.00000000000   -0.00205593177
O     0.00000000000    2.12018425659   -0.00205593177
O     2.12018425659    0.00000000000   -0.00205593177
O     0.00000000000   -2.12018425659   -0.00205593177
O     0.00000000000    0.00000000000   -2.14902768389
Mg   -2.11144262254    2.11144262254   -0.05140086690
Mg    2.11144262254    2.11144262254   -0.05140086690
Mg    2.11144262254   -2.11144262254   -0.05140086690
Mg   -2.11144262254   -2.11144262254   -0.05140086690
Mg   -2.10705287155    0.00000000000   -2.14928009216
Mg    0.00000000000    2.10705287155   -2.14928009216
Mg    2.10705287155    0.00000000000   -2.14928009216
Mg    0.00000000000   -2.10705287155   -2.14928009216
O    -2.11070451449    2.11070451449   -2.15696791928
O     2.11070451449    2.11070451449   -2.15696791928
O     2.11070451449   -2.11070451449   -2.15696791928
O    -2.11070451449   -2.11070451449   -2.15696791928

ghost=serialno
3-20

 
 
 Checking keyword combinations...
 
 Keywords:
 
 active=none
 agrid=ld0006-ld0590
 agrid_pssp=ld0006-ld0194
 agrid_pssp_sm=ld0006-ld0074
 basis=special
 basis_sm=special
 basopt=off
 bfbasis=none
 bfgsmem=10
 bfgstol=1.0d-3
 bpcompo=0.985
 bpcompv=0.98
 bpdfo=0.985
 bpocc=0.985
 bppdo=0.985
 bppdv=0.98
 bpedo=0.985
 bpedv=0.98
 calc=mp2
 ccmaxit=50
 ccprog=mrcc
 ccsdalg=disk
 ccsdmkl=seq
 ccsdrest=off
 ccsdthreads=2
 cctol=6
 charge=0
 cialg=disk
 ciguess=off
 cmpgrp=auto
 comprest=off
 core=2
 corembed=off
 csapprox=off
 cvs=off
 dboc=off
 delocsomofact=
 dendec=cholesky
 dens=0
 dfalg=lineq
 dfbasis_cab=none
 dfbasis_cor=special
 dfbasis_scf=special
 dfbasis_scf_sm=special
 dfintran=drpa
 dft=off
 dhexc=adc(2)
 diag=david
 docc=
 domrad=10.d0
 drpaalg=fit
 dual=off
 dual_df=off
 ecp=special
 edisp=off
 edisp_embed=off
 embed=off
 etemp=300
 epert=none
 eps=
 espcharge=off
 excrad=1.0
 excrad_fin=0.100000000D-02
 fitting=coulomb
 fmm=off
 fmmord=8
 freq=off
 gamma=1.d0
 gauss=spher
 geom=xyz
 gopt=off
 ghost=serialno
 gtol=7
 grdens=off
 gridbatch_cos=2000
 grtol=10
 guido_ct=off
 hamilton=dc
 iface=none
 intalg=auto
 itol=10
 laptol=1.d-2
 lccoporder=trffirst
 lcorthr=normal
 lccrest=off
 lmp2dens=on
 lnoepso=0.d0
 lnoepsv=1e-6
 boysalg=jacobi
 localcc=off
 localcorrsymm=off
 locintrf=disk
 mact=
 maxact=off
 maxdim=100
 maxex=0
 maxmicroit=100
 mcscfiguess=hf
 mem=200gb
 mmprog=
 molden=on
 mpitasks=1
 mulmet=0
 mult=
 nacto=0
 nactv=0
 naf_amp=1.d-2
 naf_cor=off
 naf_scf=off
 nafalg=albe
 naftyp=
 nchol=auto
 ndeps=1e-3
 nstate=1
 nsing=0
 nto=off
 ntrip=0
 occ=
 occri=off
 oniom=off
 oniom_eechg=off
 oniom_pcm=off
 oniom_qcorr=off
 optalg=
 optmaxit=50
 optetol=1e-6
 optex=0
 optgtol=1e-4
 optstol=1e-3
 orblocc=off
 orbloce=off
 orbloco=off
 orblocv=off
 orblocguess=cholesky
 osveps=1e-3
 ovirt=off
 ovltol=1e-7
 ovosnorb=80.0
 pcm=off
 popul=off
 pressure=100000
 pssp=off
 ptfreq=0.0
 ptthreads=2
 qro=off
 qscf=off
 qmmm=off
 redcost_exc=off
 redcost_tddft=off
 refdet=none
 rest=0
 rgrid=log3
 rism=off
 rohfcore=semicanonical
 rohftype=semicanonical
 scfalg=locfit1
 scf_conv=auto
 scfdamp=0.0d0
 scfdamp_mode=off
 scfdamp_end=1000
 scfdamp_dampstep=0.d0
 scfdamp_dtol=0.0d0
 scfdamp_maxfact=0.0d0
 scfdamp_minfact=0.0d0
 scfdiis=on
 scfdiis_dtol=0.0d0
 scfdiis_end=1000
 scfdiis_start=2
 scfdiis_step=1
 scfdiis_watch=off
 scfdiis_wrange=10
 scfdiis_wlimit=5
 scfdiis_delmax=2
 scfdtol=7
 scfext=10
 scfguessdens=
 scfiguess=small
 scfloc=pm
 scflshift=0.20
 scflshift_end=8
 scflshift_dtol=0.0
 scflshift_gaptol=0.20
 scfmaxit=1000
 scftype=rhf
 scftol=6
 scspe=1.d0
 scsph=1.d0
 scsps=1.2d0
 scsps_t=1.2d0
 scspt=0.33333333333333
 scspt_t=0.33333333333333
 scspv=1.d0
 spairtol=1e-4
 sqmprog=
 subminp=top
 symm=0
 talg=occ
 temp=298.15
 test=off
 theodore=off
 tlmo=0.999
 tpao=0.94
 tprint=off
 uncontract=off
 unit=angs
 usedisk=2
 verbosity=3
 wpairtol=0.100000000E-05
 
 Calculating integrals for small-basis SCF...

 ************************ 2023-04-25 23:54:10 *************************
 Executing integ...

 Allocation of 200.0 Gbytes of memory...
 
 
 Number of atoms:                 20
 Charge:                           0
 Number of electrons:             14
 Number of core electrons:         4
 Spin multiplicity:                1
 
                 Cartesian coordinates [bohr]      Atomic mass [AMU]  Z
   1  C     0.00000000    0.00000000    4.59825988    12.000000       6
   2  O     0.00000000    0.00000000    6.76543524    15.994915       8
   3  Mg    0.00000000    0.00000000   -0.01460385     0.000000       0
   4  O    -4.00656758    0.00000000   -0.00388515     0.000000       0
   5  O     0.00000000    4.00656758   -0.00388515     0.000000       0
   6  O     4.00656758    0.00000000   -0.00388515     0.000000       0
   7  O     0.00000000   -4.00656758   -0.00388515     0.000000       0
   8  O     0.00000000    0.00000000   -4.06107376     0.000000       0
   9  Mg   -3.99004829    3.99004829   -0.09713356     0.000000       0
  10  Mg    3.99004829    3.99004829   -0.09713356     0.000000       0
  11  Mg    3.99004829   -3.99004829   -0.09713356     0.000000       0
  12  Mg   -3.99004829   -3.99004829   -0.09713356     0.000000       0
  13  Mg   -3.98175286    0.00000000   -4.06155074     0.000000       0
  14  Mg    0.00000000    3.98175286   -4.06155074     0.000000       0
  15  Mg    3.98175286    0.00000000   -4.06155074     0.000000       0
  16  Mg    0.00000000   -3.98175286   -4.06155074     0.000000       0
  17  O    -3.98865346    3.98865346   -4.07607863     0.000000       0
  18  O     3.98865346    3.98865346   -4.07607863     0.000000       0
  19  O     3.98865346   -3.98865346   -4.07607863     0.000000       0
  20  O    -3.98865346   -3.98865346   -4.07607863     0.000000       0
 
 This molecule is a prolate symmetric top.
 
 Point group: C4v 
 Computational point group: C1  
 
 Cartesian coordinates in standard orientation [bohr]
   1  C     0.00000000    0.00000000    3.17807423
   2  O     0.00000000    0.00000000    5.34524959
   3  Mg    0.00000000    0.00000000   -1.43478950
   4  O     4.00656758   -0.00000000   -1.42407080
   5  O    -0.00000000   -4.00656758   -1.42407080
   6  O    -4.00656758    0.00000000   -1.42407080
   7  O     0.00000000    4.00656758   -1.42407080
   8  O     0.00000000    0.00000000   -5.48125941
   9  Mg    3.99004829   -3.99004829   -1.51731921
  10  Mg   -3.99004829   -3.99004829   -1.51731921
  11  Mg   -3.99004829    3.99004829   -1.51731921
  12  Mg    3.99004829    3.99004829   -1.51731921
  13  Mg    3.98175286   -0.00000000   -5.48173639
  14  Mg   -0.00000000   -3.98175286   -5.48173639
  15  Mg   -3.98175286    0.00000000   -5.48173639
  16  Mg    0.00000000    3.98175286   -5.48173639
  17  O     3.98865346   -3.98865346   -5.49626428
  18  O    -3.98865346   -3.98865346   -5.49626428
  19  O    -3.98865346    3.98865346   -5.49626428
  20  O     3.98865346    3.98865346   -5.49626428
 
 Nuclear repulsion energy [au]:         22.148646010002
 
 
 Basis set information:
 
 Maximum angular momentum: g
 Maximum number of contracted Gaussians:   13
 Maximum number of primitive Gaussians:    16
 Spherical harmonic GTOs are used.
 
 
 Conventional basis set:
 
   1  C  def2-svp [ 7s 4p 1d | 3s 2p 1d ]
   2  O  def2-svp [ 7s 4p 1d | 3s 2p 1d ]
   3  Mg def2-svp [ 10s 7p 1d | 4s 3p 1d ]
   4  O  def2-svp [ 7s 4p 1d | 3s 2p 1d ]
   5  O  def2-svp [ 7s 4p 1d | 3s 2p 1d ]
   6  O  def2-svp [ 7s 4p 1d | 3s 2p 1d ]
   7  O  def2-svp [ 7s 4p 1d | 3s 2p 1d ]
   8  O  def2-svp [ 7s 4p 1d | 3s 2p 1d ]
   9  Mg def2-svp [ 10s 7p 1d | 4s 3p 1d ]
  10  Mg def2-svp [ 10s 7p 1d | 4s 3p 1d ]
  11  Mg def2-svp [ 10s 7p 1d | 4s 3p 1d ]
  12  Mg def2-svp [ 10s 7p 1d | 4s 3p 1d ]
  13  Mg def2-svp [ 10s 7p 1d | 4s 3p 1d ]
  14  Mg def2-svp [ 10s 7p 1d | 4s 3p 1d ]
  15  Mg def2-svp [ 10s 7p 1d | 4s 3p 1d ]
  16  Mg def2-svp [ 10s 7p 1d | 4s 3p 1d ]
  17  O  def2-svp [ 7s 4p 1d | 3s 2p 1d ]
  18  O  def2-svp [ 7s 4p 1d | 3s 2p 1d ]
  19  O  def2-svp [ 7s 4p 1d | 3s 2p 1d ]
  20  O  def2-svp [ 7s 4p 1d | 3s 2p 1d ]
 
 Basis functions:
            1             2             3             4             5             6             7             8             9            10
    0    1C1s          1C2s          1C3s          1C1pz         1C1py         1C1px         1C2pz         1C2py         1C2px         1C1d-2    
    1    1C1d-1        1C1d0         1C1d+1        1C1d+2        2O1s          2O2s          2O3s          2O1pz         2O1py         2O1px     
    2    2O2pz         2O2py         2O2px         2O1d-2        2O1d-1        2O1d0         2O1d+1        2O1d+2        3Mg1s         3Mg2s     
    3    3Mg3s         3Mg4s         3Mg1pz        3Mg1py        3Mg1px        3Mg2pz        3Mg2py        3Mg2px        3Mg3pz        3Mg3py    
    4    3Mg3px        3Mg1d-2       3Mg1d-1       3Mg1d0        3Mg1d+1       3Mg1d+2       4O1s          4O2s          4O3s          4O1pz     
    5    4O1py         4O1px         4O2pz         4O2py         4O2px         4O1d-2        4O1d-1        4O1d0         4O1d+1        4O1d+2    
    6    5O1s          5O2s          5O3s          5O1pz         5O1py         5O1px         5O2pz         5O2py         5O2px         5O1d-2    
    7    5O1d-1        5O1d0         5O1d+1        5O1d+2        6O1s          6O2s          6O3s          6O1pz         6O1py         6O1px     
    8    6O2pz         6O2py         6O2px         6O1d-2        6O1d-1        6O1d0         6O1d+1        6O1d+2        7O1s          7O2s      
    9    7O3s          7O1pz         7O1py         7O1px         7O2pz         7O2py         7O2px         7O1d-2        7O1d-1        7O1d0     
   10    7O1d+1        7O1d+2        8O1s          8O2s          8O3s          8O1pz         8O1py         8O1px         8O2pz         8O2py     
   11    8O2px         8O1d-2        8O1d-1        8O1d0         8O1d+1        8O1d+2        9Mg1s         9Mg2s         9Mg3s         9Mg4s     
   12    9Mg1pz        9Mg1py        9Mg1px        9Mg2pz        9Mg2py        9Mg2px        9Mg3pz        9Mg3py        9Mg3px        9Mg1d-2   
   13    9Mg1d-1       9Mg1d0        9Mg1d+1       9Mg1d+2      10Mg1s        10Mg2s        10Mg3s        10Mg4s        10Mg1pz       10Mg1py    
   14   10Mg1px       10Mg2pz       10Mg2py       10Mg2px       10Mg3pz       10Mg3py       10Mg3px       10Mg1d-2      10Mg1d-1      10Mg1d0    
   15   10Mg1d+1      10Mg1d+2      11Mg1s        11Mg2s        11Mg3s        11Mg4s        11Mg1pz       11Mg1py       11Mg1px       11Mg2pz    
   16   11Mg2py       11Mg2px       11Mg3pz       11Mg3py       11Mg3px       11Mg1d-2      11Mg1d-1      11Mg1d0       11Mg1d+1      11Mg1d+2   
   17   12Mg1s        12Mg2s        12Mg3s        12Mg4s        12Mg1pz       12Mg1py       12Mg1px       12Mg2pz       12Mg2py       12Mg2px    
   18   12Mg3pz       12Mg3py       12Mg3px       12Mg1d-2      12Mg1d-1      12Mg1d0       12Mg1d+1      12Mg1d+2      13Mg1s        13Mg2s     
   19   13Mg3s        13Mg4s        13Mg1pz       13Mg1py       13Mg1px       13Mg2pz       13Mg2py       13Mg2px       13Mg3pz       13Mg3py    
   20   13Mg3px       13Mg1d-2      13Mg1d-1      13Mg1d0       13Mg1d+1      13Mg1d+2      14Mg1s        14Mg2s        14Mg3s        14Mg4s     
   21   14Mg1pz       14Mg1py       14Mg1px       14Mg2pz       14Mg2py       14Mg2px       14Mg3pz       14Mg3py       14Mg3px       14Mg1d-2   
   22   14Mg1d-1      14Mg1d0       14Mg1d+1      14Mg1d+2      15Mg1s        15Mg2s        15Mg3s        15Mg4s        15Mg1pz       15Mg1py    
   23   15Mg1px       15Mg2pz       15Mg2py       15Mg2px       15Mg3pz       15Mg3py       15Mg3px       15Mg1d-2      15Mg1d-1      15Mg1d0    
   24   15Mg1d+1      15Mg1d+2      16Mg1s        16Mg2s        16Mg3s        16Mg4s        16Mg1pz       16Mg1py       16Mg1px       16Mg2pz    
   25   16Mg2py       16Mg2px       16Mg3pz       16Mg3py       16Mg3px       16Mg1d-2      16Mg1d-1      16Mg1d0       16Mg1d+1      16Mg1d+2   
   26   17O1s         17O2s         17O3s         17O1pz        17O1py        17O1px        17O2pz        17O2py        17O2px        17O1d-2    
   27   17O1d-1       17O1d0        17O1d+1       17O1d+2       18O1s         18O2s         18O3s         18O1pz        18O1py        18O1px     
   28   18O2pz        18O2py        18O2px        18O1d-2       18O1d-1       18O1d0        18O1d+1       18O1d+2       19O1s         19O2s      
   29   19O3s         19O1pz        19O1py        19O1px        19O2pz        19O2py        19O2px        19O1d-2       19O1d-1       19O1d0     
   30   19O1d+1       19O1d+2       20O1s         20O2s         20O3s         20O1pz        20O1py        20O1px        20O2pz        20O2py     
   31   20O2px        20O1d-2       20O1d-1       20O1d0        20O1d+1       20O1d+2    
 
 Maximum number of basis functions per shell:    9
 Total number of basis functions:    316
 
 
 Fitting basis set for the SCF calculation:
 
   1  C  def2-qzvpp-ri-jk [ 14s 10p 6d 2f 1g | 10s 8p 5d 1f 1g ]
   2  O  def2-qzvpp-ri-jk [ 14s 10p 6d 2f 1g | 10s 8p 4d 2f 1g ]
   3  Mg def2-qzvpp-ri-jk [ 16s 12p 9d 4f 1g | 13s 9p 7d 4f 1g ]
   4  O  def2-qzvpp-ri-jk [ 14s 10p 6d 2f 1g | 10s 8p 4d 2f 1g ]
   5  O  def2-qzvpp-ri-jk [ 14s 10p 6d 2f 1g | 10s 8p 4d 2f 1g ]
   6  O  def2-qzvpp-ri-jk [ 14s 10p 6d 2f 1g | 10s 8p 4d 2f 1g ]
   7  O  def2-qzvpp-ri-jk [ 14s 10p 6d 2f 1g | 10s 8p 4d 2f 1g ]
   8  O  def2-qzvpp-ri-jk [ 14s 10p 6d 2f 1g | 10s 8p 4d 2f 1g ]
   9  Mg def2-qzvpp-ri-jk [ 16s 12p 9d 4f 1g | 13s 9p 7d 4f 1g ]
  10  Mg def2-qzvpp-ri-jk [ 16s 12p 9d 4f 1g | 13s 9p 7d 4f 1g ]
  11  Mg def2-qzvpp-ri-jk [ 16s 12p 9d 4f 1g | 13s 9p 7d 4f 1g ]
  12  Mg def2-qzvpp-ri-jk [ 16s 12p 9d 4f 1g | 13s 9p 7d 4f 1g ]
  13  Mg def2-qzvpp-ri-jk [ 16s 12p 9d 4f 1g | 13s 9p 7d 4f 1g ]
  14  Mg def2-qzvpp-ri-jk [ 16s 12p 9d 4f 1g | 13s 9p 7d 4f 1g ]
  15  Mg def2-qzvpp-ri-jk [ 16s 12p 9d 4f 1g | 13s 9p 7d 4f 1g ]
  16  Mg def2-qzvpp-ri-jk [ 16s 12p 9d 4f 1g | 13s 9p 7d 4f 1g ]
  17  O  def2-qzvpp-ri-jk [ 14s 10p 6d 2f 1g | 10s 8p 4d 2f 1g ]
  18  O  def2-qzvpp-ri-jk [ 14s 10p 6d 2f 1g | 10s 8p 4d 2f 1g ]
  19  O  def2-qzvpp-ri-jk [ 14s 10p 6d 2f 1g | 10s 8p 4d 2f 1g ]
  20  O  def2-qzvpp-ri-jk [ 14s 10p 6d 2f 1g | 10s 8p 4d 2f 1g ]
 
 Basis functions:
            1             2             3             4             5             6             7             8             9            10
    0    1C1s          1C2s          1C3s          1C4s          1C5s          1C6s          1C7s          1C8s          1C9s          1C10s     
    1    1C1pz         1C1py         1C1px         1C2pz         1C2py         1C2px         1C3pz         1C3py         1C3px         1C4pz     
    2    1C4py         1C4px         1C5pz         1C5py         1C5px         1C6pz         1C6py         1C6px         1C7pz         1C7py     
    3    1C7px         1C8pz         1C8py         1C8px         1C1d-2        1C1d-1        1C1d0         1C1d+1        1C1d+2        1C2d-2    
    4    1C2d-1        1C2d0         1C2d+1        1C2d+2        1C3d-2        1C3d-1        1C3d0         1C3d+1        1C3d+2        1C4d-2    
    5    1C4d-1        1C4d0         1C4d+1        1C4d+2        1C5d-2        1C5d-1        1C5d0         1C5d+1        1C5d+2        1C1f-3    
    6    1C1f-2        1C1f-1        1C1f0         1C1f+1        1C1f+2        1C1f+3        1C1g-4        1C1g-3        1C1g-2        1C1g-1    
    7    1C1g0         1C1g+1        1C1g+2        1C1g+3        1C1g+4        2O1s          2O2s          2O3s          2O4s          2O5s      
    8    2O6s          2O7s          2O8s          2O9s          2O10s         2O1pz         2O1py         2O1px         2O2pz         2O2py     
    9    2O2px         2O3pz         2O3py         2O3px         2O4pz         2O4py         2O4px         2O5pz         2O5py         2O5px     
   10    2O6pz         2O6py         2O6px         2O7pz         2O7py         2O7px         2O8pz         2O8py         2O8px         2O1d-2    
   11    2O1d-1        2O1d0         2O1d+1        2O1d+2        2O2d-2        2O2d-1        2O2d0         2O2d+1        2O2d+2        2O3d-2    
   12    2O3d-1        2O3d0         2O3d+1        2O3d+2        2O4d-2        2O4d-1        2O4d0         2O4d+1        2O4d+2        2O1f-3    
   13    2O1f-2        2O1f-1        2O1f0         2O1f+1        2O1f+2        2O1f+3        2O2f-3        2O2f-2        2O2f-1        2O2f0     
   14    2O2f+1        2O2f+2        2O2f+3        2O1g-4        2O1g-3        2O1g-2        2O1g-1        2O1g0         2O1g+1        2O1g+2    
   15    2O1g+3        2O1g+4        3Mg1s         3Mg2s         3Mg3s         3Mg4s         3Mg5s         3Mg6s         3Mg7s         3Mg8s     
   16    3Mg9s         3Mg10s        3Mg11s        3Mg12s        3Mg13s        3Mg1pz        3Mg1py        3Mg1px        3Mg2pz        3Mg2py    
   17    3Mg2px        3Mg3pz        3Mg3py        3Mg3px        3Mg4pz        3Mg4py        3Mg4px        3Mg5pz        3Mg5py        3Mg5px    
   18    3Mg6pz        3Mg6py        3Mg6px        3Mg7pz        3Mg7py        3Mg7px        3Mg8pz        3Mg8py        3Mg8px        3Mg9pz    
   19    3Mg9py        3Mg9px        3Mg1d-2       3Mg1d-1       3Mg1d0        3Mg1d+1       3Mg1d+2       3Mg2d-2       3Mg2d-1       3Mg2d0    
   20    3Mg2d+1       3Mg2d+2       3Mg3d-2       3Mg3d-1       3Mg3d0        3Mg3d+1       3Mg3d+2       3Mg4d-2       3Mg4d-1       3Mg4d0    
   21    3Mg4d+1       3Mg4d+2       3Mg5d-2       3Mg5d-1       3Mg5d0        3Mg5d+1       3Mg5d+2       3Mg6d-2       3Mg6d-1       3Mg6d0    
   22    3Mg6d+1       3Mg6d+2       3Mg7d-2       3Mg7d-1       3Mg7d0        3Mg7d+1       3Mg7d+2       3Mg1f-3       3Mg1f-2       3Mg1f-1   
   23    3Mg1f0        3Mg1f+1       3Mg1f+2       3Mg1f+3       3Mg2f-3       3Mg2f-2       3Mg2f-1       3Mg2f0        3Mg2f+1       3Mg2f+2   
   24    3Mg2f+3       3Mg3f-3       3Mg3f-2       3Mg3f-1       3Mg3f0        3Mg3f+1       3Mg3f+2       3Mg3f+3       3Mg4f-3       3Mg4f-2   
   25    3Mg4f-1       3Mg4f0        3Mg4f+1       3Mg4f+2       3Mg4f+3       3Mg1g-4       3Mg1g-3       3Mg1g-2       3Mg1g-1       3Mg1g0    
   26    3Mg1g+1       3Mg1g+2       3Mg1g+3       3Mg1g+4       4O1s          4O2s          4O3s          4O4s          4O5s          4O6s      
   27    4O7s          4O8s          4O9s          4O10s         4O1pz         4O1py         4O1px         4O2pz         4O2py         4O2px     
   28    4O3pz         4O3py         4O3px         4O4pz         4O4py         4O4px         4O5pz         4O5py         4O5px         4O6pz     
   29    4O6py         4O6px         4O7pz         4O7py         4O7px         4O8pz         4O8py         4O8px         4O1d-2        4O1d-1    
   30    4O1d0         4O1d+1        4O1d+2        4O2d-2        4O2d-1        4O2d0         4O2d+1        4O2d+2        4O3d-2        4O3d-1    
   31    4O3d0         4O3d+1        4O3d+2        4O4d-2        4O4d-1        4O4d0         4O4d+1        4O4d+2        4O1f-3        4O1f-2    
   32    4O1f-1        4O1f0         4O1f+1        4O1f+2        4O1f+3        4O2f-3        4O2f-2        4O2f-1        4O2f0         4O2f+1    
   33    4O2f+2        4O2f+3        4O1g-4        4O1g-3        4O1g-2        4O1g-1        4O1g0         4O1g+1        4O1g+2        4O1g+3    
   34    4O1g+4        5O1s          5O2s          5O3s          5O4s          5O5s          5O6s          5O7s          5O8s          5O9s      
   35    5O10s         5O1pz         5O1py         5O1px         5O2pz         5O2py         5O2px         5O3pz         5O3py         5O3px     
   36    5O4pz         5O4py         5O4px         5O5pz         5O5py         5O5px         5O6pz         5O6py         5O6px         5O7pz     
   37    5O7py         5O7px         5O8pz         5O8py         5O8px         5O1d-2        5O1d-1        5O1d0         5O1d+1        5O1d+2    
   38    5O2d-2        5O2d-1        5O2d0         5O2d+1        5O2d+2        5O3d-2        5O3d-1        5O3d0         5O3d+1        5O3d+2    
   39    5O4d-2        5O4d-1        5O4d0         5O4d+1        5O4d+2        5O1f-3        5O1f-2        5O1f-1        5O1f0         5O1f+1    
   40    5O1f+2        5O1f+3        5O2f-3        5O2f-2        5O2f-1        5O2f0         5O2f+1        5O2f+2        5O2f+3        5O1g-4    
   41    5O1g-3        5O1g-2        5O1g-1        5O1g0         5O1g+1        5O1g+2        5O1g+3        5O1g+4        6O1s          6O2s      
   42    6O3s          6O4s          6O5s          6O6s          6O7s          6O8s          6O9s          6O10s         6O1pz         6O1py     
   43    6O1px         6O2pz         6O2py         6O2px         6O3pz         6O3py         6O3px         6O4pz         6O4py         6O4px     
   44    6O5pz         6O5py         6O5px         6O6pz         6O6py         6O6px         6O7pz         6O7py         6O7px         6O8pz     
   45    6O8py         6O8px         6O1d-2        6O1d-1        6O1d0         6O1d+1        6O1d+2        6O2d-2        6O2d-1        6O2d0     
   46    6O2d+1        6O2d+2        6O3d-2        6O3d-1        6O3d0         6O3d+1        6O3d+2        6O4d-2        6O4d-1        6O4d0     
   47    6O4d+1        6O4d+2        6O1f-3        6O1f-2        6O1f-1        6O1f0         6O1f+1        6O1f+2        6O1f+3        6O2f-3    
   48    6O2f-2        6O2f-1        6O2f0         6O2f+1        6O2f+2        6O2f+3        6O1g-4        6O1g-3        6O1g-2        6O1g-1    
   49    6O1g0         6O1g+1        6O1g+2        6O1g+3        6O1g+4        7O1s          7O2s          7O3s          7O4s          7O5s      
   50    7O6s          7O7s          7O8s          7O9s          7O10s         7O1pz         7O1py         7O1px         7O2pz         7O2py     
   51    7O2px         7O3pz         7O3py         7O3px         7O4pz         7O4py         7O4px         7O5pz         7O5py         7O5px     
   52    7O6pz         7O6py         7O6px         7O7pz         7O7py         7O7px         7O8pz         7O8py         7O8px         7O1d-2    
   53    7O1d-1        7O1d0         7O1d+1        7O1d+2        7O2d-2        7O2d-1        7O2d0         7O2d+1        7O2d+2        7O3d-2    
   54    7O3d-1        7O3d0         7O3d+1        7O3d+2        7O4d-2        7O4d-1        7O4d0         7O4d+1        7O4d+2        7O1f-3    
   55    7O1f-2        7O1f-1        7O1f0         7O1f+1        7O1f+2        7O1f+3        7O2f-3        7O2f-2        7O2f-1        7O2f0     
   56    7O2f+1        7O2f+2        7O2f+3        7O1g-4        7O1g-3        7O1g-2        7O1g-1        7O1g0         7O1g+1        7O1g+2    
   57    7O1g+3        7O1g+4        8O1s          8O2s          8O3s          8O4s          8O5s          8O6s          8O7s          8O8s      
   58    8O9s          8O10s         8O1pz         8O1py         8O1px         8O2pz         8O2py         8O2px         8O3pz         8O3py     
   59    8O3px         8O4pz         8O4py         8O4px         8O5pz         8O5py         8O5px         8O6pz         8O6py         8O6px     
   60    8O7pz         8O7py         8O7px         8O8pz         8O8py         8O8px         8O1d-2        8O1d-1        8O1d0         8O1d+1    
   61    8O1d+2        8O2d-2        8O2d-1        8O2d0         8O2d+1        8O2d+2        8O3d-2        8O3d-1        8O3d0         8O3d+1    
   62    8O3d+2        8O4d-2        8O4d-1        8O4d0         8O4d+1        8O4d+2        8O1f-3        8O1f-2        8O1f-1        8O1f0     
   63    8O1f+1        8O1f+2        8O1f+3        8O2f-3        8O2f-2        8O2f-1        8O2f0         8O2f+1        8O2f+2        8O2f+3    
   64    8O1g-4        8O1g-3        8O1g-2        8O1g-1        8O1g0         8O1g+1        8O1g+2        8O1g+3        8O1g+4        9Mg1s     
   65    9Mg2s         9Mg3s         9Mg4s         9Mg5s         9Mg6s         9Mg7s         9Mg8s         9Mg9s         9Mg10s        9Mg11s    
   66    9Mg12s        9Mg13s        9Mg1pz        9Mg1py        9Mg1px        9Mg2pz        9Mg2py        9Mg2px        9Mg3pz        9Mg3py    
   67    9Mg3px        9Mg4pz        9Mg4py        9Mg4px        9Mg5pz        9Mg5py        9Mg5px        9Mg6pz        9Mg6py        9Mg6px    
   68    9Mg7pz        9Mg7py        9Mg7px        9Mg8pz        9Mg8py        9Mg8px        9Mg9pz        9Mg9py        9Mg9px        9Mg1d-2   
   69    9Mg1d-1       9Mg1d0        9Mg1d+1       9Mg1d+2       9Mg2d-2       9Mg2d-1       9Mg2d0        9Mg2d+1       9Mg2d+2       9Mg3d-2   
   70    9Mg3d-1       9Mg3d0        9Mg3d+1       9Mg3d+2       9Mg4d-2       9Mg4d-1       9Mg4d0        9Mg4d+1       9Mg4d+2       9Mg5d-2   
   71    9Mg5d-1       9Mg5d0        9Mg5d+1       9Mg5d+2       9Mg6d-2       9Mg6d-1       9Mg6d0        9Mg6d+1       9Mg6d+2       9Mg7d-2   
   72    9Mg7d-1       9Mg7d0        9Mg7d+1       9Mg7d+2       9Mg1f-3       9Mg1f-2       9Mg1f-1       9Mg1f0        9Mg1f+1       9Mg1f+2   
   73    9Mg1f+3       9Mg2f-3       9Mg2f-2       9Mg2f-1       9Mg2f0        9Mg2f+1       9Mg2f+2       9Mg2f+3       9Mg3f-3       9Mg3f-2   
   74    9Mg3f-1       9Mg3f0        9Mg3f+1       9Mg3f+2       9Mg3f+3       9Mg4f-3       9Mg4f-2       9Mg4f-1       9Mg4f0        9Mg4f+1   
   75    9Mg4f+2       9Mg4f+3       9Mg1g-4       9Mg1g-3       9Mg1g-2       9Mg1g-1       9Mg1g0        9Mg1g+1       9Mg1g+2       9Mg1g+3   
   76    9Mg1g+4      10Mg1s        10Mg2s        10Mg3s        10Mg4s        10Mg5s        10Mg6s        10Mg7s        10Mg8s        10Mg9s     
   77   10Mg10s       10Mg11s       10Mg12s       10Mg13s       10Mg1pz       10Mg1py       10Mg1px       10Mg2pz       10Mg2py       10Mg2px    
   78   10Mg3pz       10Mg3py       10Mg3px       10Mg4pz       10Mg4py       10Mg4px       10Mg5pz       10Mg5py       10Mg5px       10Mg6pz    
   79   10Mg6py       10Mg6px       10Mg7pz       10Mg7py       10Mg7px       10Mg8pz       10Mg8py       10Mg8px       10Mg9pz       10Mg9py    
   80   10Mg9px       10Mg1d-2      10Mg1d-1      10Mg1d0       10Mg1d+1      10Mg1d+2      10Mg2d-2      10Mg2d-1      10Mg2d0       10Mg2d+1   
   81   10Mg2d+2      10Mg3d-2      10Mg3d-1      10Mg3d0       10Mg3d+1      10Mg3d+2      10Mg4d-2      10Mg4d-1      10Mg4d0       10Mg4d+1   
   82   10Mg4d+2      10Mg5d-2      10Mg5d-1      10Mg5d0       10Mg5d+1      10Mg5d+2      10Mg6d-2      10Mg6d-1      10Mg6d0       10Mg6d+1   
   83   10Mg6d+2      10Mg7d-2      10Mg7d-1      10Mg7d0       10Mg7d+1      10Mg7d+2      10Mg1f-3      10Mg1f-2      10Mg1f-1      10Mg1f0    
   84   10Mg1f+1      10Mg1f+2      10Mg1f+3      10Mg2f-3      10Mg2f-2      10Mg2f-1      10Mg2f0       10Mg2f+1      10Mg2f+2      10Mg2f+3   
   85   10Mg3f-3      10Mg3f-2      10Mg3f-1      10Mg3f0       10Mg3f+1      10Mg3f+2      10Mg3f+3      10Mg4f-3      10Mg4f-2      10Mg4f-1   
   86   10Mg4f0       10Mg4f+1      10Mg4f+2      10Mg4f+3      10Mg1g-4      10Mg1g-3      10Mg1g-2      10Mg1g-1      10Mg1g0       10Mg1g+1   
   87   10Mg1g+2      10Mg1g+3      10Mg1g+4      11Mg1s        11Mg2s        11Mg3s        11Mg4s        11Mg5s        11Mg6s        11Mg7s     
   88   11Mg8s        11Mg9s        11Mg10s       11Mg11s       11Mg12s       11Mg13s       11Mg1pz       11Mg1py       11Mg1px       11Mg2pz    
   89   11Mg2py       11Mg2px       11Mg3pz       11Mg3py       11Mg3px       11Mg4pz       11Mg4py       11Mg4px       11Mg5pz       11Mg5py    
   90   11Mg5px       11Mg6pz       11Mg6py       11Mg6px       11Mg7pz       11Mg7py       11Mg7px       11Mg8pz       11Mg8py       11Mg8px    
   91   11Mg9pz       11Mg9py       11Mg9px       11Mg1d-2      11Mg1d-1      11Mg1d0       11Mg1d+1      11Mg1d+2      11Mg2d-2      11Mg2d-1   
   92   11Mg2d0       11Mg2d+1      11Mg2d+2      11Mg3d-2      11Mg3d-1      11Mg3d0       11Mg3d+1      11Mg3d+2      11Mg4d-2      11Mg4d-1   
   93   11Mg4d0       11Mg4d+1      11Mg4d+2      11Mg5d-2      11Mg5d-1      11Mg5d0       11Mg5d+1      11Mg5d+2      11Mg6d-2      11Mg6d-1   
   94   11Mg6d0       11Mg6d+1      11Mg6d+2      11Mg7d-2      11Mg7d-1      11Mg7d0       11Mg7d+1      11Mg7d+2      11Mg1f-3      11Mg1f-2   
   95   11Mg1f-1      11Mg1f0       11Mg1f+1      11Mg1f+2      11Mg1f+3      11Mg2f-3      11Mg2f-2      11Mg2f-1      11Mg2f0       11Mg2f+1   
   96   11Mg2f+2      11Mg2f+3      11Mg3f-3      11Mg3f-2      11Mg3f-1      11Mg3f0       11Mg3f+1      11Mg3f+2      11Mg3f+3      11Mg4f-3   
   97   11Mg4f-2      11Mg4f-1      11Mg4f0       11Mg4f+1      11Mg4f+2      11Mg4f+3      11Mg1g-4      11Mg1g-3      11Mg1g-2      11Mg1g-1   
   98   11Mg1g0       11Mg1g+1      11Mg1g+2      11Mg1g+3      11Mg1g+4      12Mg1s        12Mg2s        12Mg3s        12Mg4s        12Mg5s     
   99   12Mg6s        12Mg7s        12Mg8s        12Mg9s        12Mg10s       12Mg11s       12Mg12s       12Mg13s       12Mg1pz       12Mg1py    
  100   12Mg1px       12Mg2pz       12Mg2py       12Mg2px       12Mg3pz       12Mg3py       12Mg3px       12Mg4pz       12Mg4py       12Mg4px    
  101   12Mg5pz       12Mg5py       12Mg5px       12Mg6pz       12Mg6py       12Mg6px       12Mg7pz       12Mg7py       12Mg7px       12Mg8pz    
  102   12Mg8py       12Mg8px       12Mg9pz       12Mg9py       12Mg9px       12Mg1d-2      12Mg1d-1      12Mg1d0       12Mg1d+1      12Mg1d+2   
  103   12Mg2d-2      12Mg2d-1      12Mg2d0       12Mg2d+1      12Mg2d+2      12Mg3d-2      12Mg3d-1      12Mg3d0       12Mg3d+1      12Mg3d+2   
  104   12Mg4d-2      12Mg4d-1      12Mg4d0       12Mg4d+1      12Mg4d+2      12Mg5d-2      12Mg5d-1      12Mg5d0       12Mg5d+1      12Mg5d+2   
  105   12Mg6d-2      12Mg6d-1      12Mg6d0       12Mg6d+1      12Mg6d+2      12Mg7d-2      12Mg7d-1      12Mg7d0       12Mg7d+1      12Mg7d+2   
  106   12Mg1f-3      12Mg1f-2      12Mg1f-1      12Mg1f0       12Mg1f+1      12Mg1f+2      12Mg1f+3      12Mg2f-3      12Mg2f-2      12Mg2f-1   
  107   12Mg2f0       12Mg2f+1      12Mg2f+2      12Mg2f+3      12Mg3f-3      12Mg3f-2      12Mg3f-1      12Mg3f0       12Mg3f+1      12Mg3f+2   
  108   12Mg3f+3      12Mg4f-3      12Mg4f-2      12Mg4f-1      12Mg4f0       12Mg4f+1      12Mg4f+2      12Mg4f+3      12Mg1g-4      12Mg1g-3   
  109   12Mg1g-2      12Mg1g-1      12Mg1g0       12Mg1g+1      12Mg1g+2      12Mg1g+3      12Mg1g+4      13Mg1s        13Mg2s        13Mg3s     
  110   13Mg4s        13Mg5s        13Mg6s        13Mg7s        13Mg8s        13Mg9s        13Mg10s       13Mg11s       13Mg12s       13Mg13s    
  111   13Mg1pz       13Mg1py       13Mg1px       13Mg2pz       13Mg2py       13Mg2px       13Mg3pz       13Mg3py       13Mg3px       13Mg4pz    
  112   13Mg4py       13Mg4px       13Mg5pz       13Mg5py       13Mg5px       13Mg6pz       13Mg6py       13Mg6px       13Mg7pz       13Mg7py    
  113   13Mg7px       13Mg8pz       13Mg8py       13Mg8px       13Mg9pz       13Mg9py       13Mg9px       13Mg1d-2      13Mg1d-1      13Mg1d0    
  114   13Mg1d+1      13Mg1d+2      13Mg2d-2      13Mg2d-1      13Mg2d0       13Mg2d+1      13Mg2d+2      13Mg3d-2      13Mg3d-1      13Mg3d0    
  115   13Mg3d+1      13Mg3d+2      13Mg4d-2      13Mg4d-1      13Mg4d0       13Mg4d+1      13Mg4d+2      13Mg5d-2      13Mg5d-1      13Mg5d0    
  116   13Mg5d+1      13Mg5d+2      13Mg6d-2      13Mg6d-1      13Mg6d0       13Mg6d+1      13Mg6d+2      13Mg7d-2      13Mg7d-1      13Mg7d0    
  117   13Mg7d+1      13Mg7d+2      13Mg1f-3      13Mg1f-2      13Mg1f-1      13Mg1f0       13Mg1f+1      13Mg1f+2      13Mg1f+3      13Mg2f-3   
  118   13Mg2f-2      13Mg2f-1      13Mg2f0       13Mg2f+1      13Mg2f+2      13Mg2f+3      13Mg3f-3      13Mg3f-2      13Mg3f-1      13Mg3f0    
  119   13Mg3f+1      13Mg3f+2      13Mg3f+3      13Mg4f-3      13Mg4f-2      13Mg4f-1      13Mg4f0       13Mg4f+1      13Mg4f+2      13Mg4f+3   
  120   13Mg1g-4      13Mg1g-3      13Mg1g-2      13Mg1g-1      13Mg1g0       13Mg1g+1      13Mg1g+2      13Mg1g+3      13Mg1g+4      14Mg1s     
  121   14Mg2s        14Mg3s        14Mg4s        14Mg5s        14Mg6s        14Mg7s        14Mg8s        14Mg9s        14Mg10s       14Mg11s    
  122   14Mg12s       14Mg13s       14Mg1pz       14Mg1py       14Mg1px       14Mg2pz       14Mg2py       14Mg2px       14Mg3pz       14Mg3py    
  123   14Mg3px       14Mg4pz       14Mg4py       14Mg4px       14Mg5pz       14Mg5py       14Mg5px       14Mg6pz       14Mg6py       14Mg6px    
  124   14Mg7pz       14Mg7py       14Mg7px       14Mg8pz       14Mg8py       14Mg8px       14Mg9pz       14Mg9py       14Mg9px       14Mg1d-2   
  125   14Mg1d-1      14Mg1d0       14Mg1d+1      14Mg1d+2      14Mg2d-2      14Mg2d-1      14Mg2d0       14Mg2d+1      14Mg2d+2      14Mg3d-2   
  126   14Mg3d-1      14Mg3d0       14Mg3d+1      14Mg3d+2      14Mg4d-2      14Mg4d-1      14Mg4d0       14Mg4d+1      14Mg4d+2      14Mg5d-2   
  127   14Mg5d-1      14Mg5d0       14Mg5d+1      14Mg5d+2      14Mg6d-2      14Mg6d-1      14Mg6d0       14Mg6d+1      14Mg6d+2      14Mg7d-2   
  128   14Mg7d-1      14Mg7d0       14Mg7d+1      14Mg7d+2      14Mg1f-3      14Mg1f-2      14Mg1f-1      14Mg1f0       14Mg1f+1      14Mg1f+2   
  129   14Mg1f+3      14Mg2f-3      14Mg2f-2      14Mg2f-1      14Mg2f0       14Mg2f+1      14Mg2f+2      14Mg2f+3      14Mg3f-3      14Mg3f-2   
  130   14Mg3f-1      14Mg3f0       14Mg3f+1      14Mg3f+2      14Mg3f+3      14Mg4f-3      14Mg4f-2      14Mg4f-1      14Mg4f0       14Mg4f+1   
  131   14Mg4f+2      14Mg4f+3      14Mg1g-4      14Mg1g-3      14Mg1g-2      14Mg1g-1      14Mg1g0       14Mg1g+1      14Mg1g+2      14Mg1g+3   
  132   14Mg1g+4      15Mg1s        15Mg2s        15Mg3s        15Mg4s        15Mg5s        15Mg6s        15Mg7s        15Mg8s        15Mg9s     
  133   15Mg10s       15Mg11s       15Mg12s       15Mg13s       15Mg1pz       15Mg1py       15Mg1px       15Mg2pz       15Mg2py       15Mg2px    
  134   15Mg3pz       15Mg3py       15Mg3px       15Mg4pz       15Mg4py       15Mg4px       15Mg5pz       15Mg5py       15Mg5px       15Mg6pz    
  135   15Mg6py       15Mg6px       15Mg7pz       15Mg7py       15Mg7px       15Mg8pz       15Mg8py       15Mg8px       15Mg9pz       15Mg9py    
  136   15Mg9px       15Mg1d-2      15Mg1d-1      15Mg1d0       15Mg1d+1      15Mg1d+2      15Mg2d-2      15Mg2d-1      15Mg2d0       15Mg2d+1   
  137   15Mg2d+2      15Mg3d-2      15Mg3d-1      15Mg3d0       15Mg3d+1      15Mg3d+2      15Mg4d-2      15Mg4d-1      15Mg4d0       15Mg4d+1   
  138   15Mg4d+2      15Mg5d-2      15Mg5d-1      15Mg5d0       15Mg5d+1      15Mg5d+2      15Mg6d-2      15Mg6d-1      15Mg6d0       15Mg6d+1   
  139   15Mg6d+2      15Mg7d-2      15Mg7d-1      15Mg7d0       15Mg7d+1      15Mg7d+2      15Mg1f-3      15Mg1f-2      15Mg1f-1      15Mg1f0    
  140   15Mg1f+1      15Mg1f+2      15Mg1f+3      15Mg2f-3      15Mg2f-2      15Mg2f-1      15Mg2f0       15Mg2f+1      15Mg2f+2      15Mg2f+3   
  141   15Mg3f-3      15Mg3f-2      15Mg3f-1      15Mg3f0       15Mg3f+1      15Mg3f+2      15Mg3f+3      15Mg4f-3      15Mg4f-2      15Mg4f-1   
  142   15Mg4f0       15Mg4f+1      15Mg4f+2      15Mg4f+3      15Mg1g-4      15Mg1g-3      15Mg1g-2      15Mg1g-1      15Mg1g0       15Mg1g+1   
  143   15Mg1g+2      15Mg1g+3      15Mg1g+4      16Mg1s        16Mg2s        16Mg3s        16Mg4s        16Mg5s        16Mg6s        16Mg7s     
  144   16Mg8s        16Mg9s        16Mg10s       16Mg11s       16Mg12s       16Mg13s       16Mg1pz       16Mg1py       16Mg1px       16Mg2pz    
  145   16Mg2py       16Mg2px       16Mg3pz       16Mg3py       16Mg3px       16Mg4pz       16Mg4py       16Mg4px       16Mg5pz       16Mg5py    
  146   16Mg5px       16Mg6pz       16Mg6py       16Mg6px       16Mg7pz       16Mg7py       16Mg7px       16Mg8pz       16Mg8py       16Mg8px    
  147   16Mg9pz       16Mg9py       16Mg9px       16Mg1d-2      16Mg1d-1      16Mg1d0       16Mg1d+1      16Mg1d+2      16Mg2d-2      16Mg2d-1   
  148   16Mg2d0       16Mg2d+1      16Mg2d+2      16Mg3d-2      16Mg3d-1      16Mg3d0       16Mg3d+1      16Mg3d+2      16Mg4d-2      16Mg4d-1   
  149   16Mg4d0       16Mg4d+1      16Mg4d+2      16Mg5d-2      16Mg5d-1      16Mg5d0       16Mg5d+1      16Mg5d+2      16Mg6d-2      16Mg6d-1   
  150   16Mg6d0       16Mg6d+1      16Mg6d+2      16Mg7d-2      16Mg7d-1      16Mg7d0       16Mg7d+1      16Mg7d+2      16Mg1f-3      16Mg1f-2   
  151   16Mg1f-1      16Mg1f0       16Mg1f+1      16Mg1f+2      16Mg1f+3      16Mg2f-3      16Mg2f-2      16Mg2f-1      16Mg2f0       16Mg2f+1   
  152   16Mg2f+2      16Mg2f+3      16Mg3f-3      16Mg3f-2      16Mg3f-1      16Mg3f0       16Mg3f+1      16Mg3f+2      16Mg3f+3      16Mg4f-3   
  153   16Mg4f-2      16Mg4f-1      16Mg4f0       16Mg4f+1      16Mg4f+2      16Mg4f+3      16Mg1g-4      16Mg1g-3      16Mg1g-2      16Mg1g-1   
  154   16Mg1g0       16Mg1g+1      16Mg1g+2      16Mg1g+3      16Mg1g+4      17O1s         17O2s         17O3s         17O4s         17O5s      
  155   17O6s         17O7s         17O8s         17O9s         17O10s        17O1pz        17O1py        17O1px        17O2pz        17O2py     
  156   17O2px        17O3pz        17O3py        17O3px        17O4pz        17O4py        17O4px        17O5pz        17O5py        17O5px     
  157   17O6pz        17O6py        17O6px        17O7pz        17O7py        17O7px        17O8pz        17O8py        17O8px        17O1d-2    
  158   17O1d-1       17O1d0        17O1d+1       17O1d+2       17O2d-2       17O2d-1       17O2d0        17O2d+1       17O2d+2       17O3d-2    
  159   17O3d-1       17O3d0        17O3d+1       17O3d+2       17O4d-2       17O4d-1       17O4d0        17O4d+1       17O4d+2       17O1f-3    
  160   17O1f-2       17O1f-1       17O1f0        17O1f+1       17O1f+2       17O1f+3       17O2f-3       17O2f-2       17O2f-1       17O2f0     
  161   17O2f+1       17O2f+2       17O2f+3       17O1g-4       17O1g-3       17O1g-2       17O1g-1       17O1g0        17O1g+1       17O1g+2    
  162   17O1g+3       17O1g+4       18O1s         18O2s         18O3s         18O4s         18O5s         18O6s         18O7s         18O8s      
  163   18O9s         18O10s        18O1pz        18O1py        18O1px        18O2pz        18O2py        18O2px        18O3pz        18O3py     
  164   18O3px        18O4pz        18O4py        18O4px        18O5pz        18O5py        18O5px        18O6pz        18O6py        18O6px     
  165   18O7pz        18O7py        18O7px        18O8pz        18O8py        18O8px        18O1d-2       18O1d-1       18O1d0        18O1d+1    
  166   18O1d+2       18O2d-2       18O2d-1       18O2d0        18O2d+1       18O2d+2       18O3d-2       18O3d-1       18O3d0        18O3d+1    
  167   18O3d+2       18O4d-2       18O4d-1       18O4d0        18O4d+1       18O4d+2       18O1f-3       18O1f-2       18O1f-1       18O1f0     
  168   18O1f+1       18O1f+2       18O1f+3       18O2f-3       18O2f-2       18O2f-1       18O2f0        18O2f+1       18O2f+2       18O2f+3    
  169   18O1g-4       18O1g-3       18O1g-2       18O1g-1       18O1g0        18O1g+1       18O1g+2       18O1g+3       18O1g+4       19O1s      
  170   19O2s         19O3s         19O4s         19O5s         19O6s         19O7s         19O8s         19O9s         19O10s        19O1pz     
  171   19O1py        19O1px        19O2pz        19O2py        19O2px        19O3pz        19O3py        19O3px        19O4pz        19O4py     
  172   19O4px        19O5pz        19O5py        19O5px        19O6pz        19O6py        19O6px        19O7pz        19O7py        19O7px     
  173   19O8pz        19O8py        19O8px        19O1d-2       19O1d-1       19O1d0        19O1d+1       19O1d+2       19O2d-2       19O2d-1    
  174   19O2d0        19O2d+1       19O2d+2       19O3d-2       19O3d-1       19O3d0        19O3d+1       19O3d+2       19O4d-2       19O4d-1    
  175   19O4d0        19O4d+1       19O4d+2       19O1f-3       19O1f-2       19O1f-1       19O1f0        19O1f+1       19O1f+2       19O1f+3    
  176   19O2f-3       19O2f-2       19O2f-1       19O2f0        19O2f+1       19O2f+2       19O2f+3       19O1g-4       19O1g-3       19O1g-2    
  177   19O1g-1       19O1g0        19O1g+1       19O1g+2       19O1g+3       19O1g+4       20O1s         20O2s         20O3s         20O4s      
  178   20O5s         20O6s         20O7s         20O8s         20O9s         20O10s        20O1pz        20O1py        20O1px        20O2pz     
  179   20O2py        20O2px        20O3pz        20O3py        20O3px        20O4pz        20O4py        20O4px        20O5pz        20O5py     
  180   20O5px        20O6pz        20O6py        20O6px        20O7pz        20O7py        20O7px        20O8pz        20O8py        20O8px     
  181   20O1d-2       20O1d-1       20O1d0        20O1d+1       20O1d+2       20O2d-2       20O2d-1       20O2d0        20O2d+1       20O2d+2    
  182   20O3d-2       20O3d-1       20O3d0        20O3d+1       20O3d+2       20O4d-2       20O4d-1       20O4d0        20O4d+1       20O4d+2    
  183   20O1f-3       20O1f-2       20O1f-1       20O1f0        20O1f+1       20O1f+2       20O1f+3       20O2f-3       20O2f-2       20O2f-1    
  184   20O2f0        20O2f+1       20O2f+2       20O2f+3       20O1g-4       20O1g-3       20O1g-2       20O1g-1       20O1g0        20O1g+1    
  185   20O1g+2       20O1g+3       20O1g+4    
 
 Maximum number of basis functions per shell:   35
 Total number of basis functions:   1853
 
 
 Initializing the SAD routines for the initial guess...
 Checking the files required for the initial guess...
 Atomic density files have been found for the atoms with the following serial numbers:
  
 Atomic density files have not been found for the atoms with the following serial numbers:
  1 2
 Generating SCFDENSITIES.C.def2-svp.0
 Generating SCFDENSITIES.O.def2-svp.0
 CPU time [min]:     0.122                   Wall time [min]:     0.153
 
 Character table for point group C1:
 
          E  
    A     1
 
 Number of basis functions per irrep:
    A     316
 
 
 Calculation of overlap integrals...
 CPU time [min]:     0.124                   Wall time [min]:     0.154
 
 Calculation of the square root of the overlap matrix...
 Minimum eigenvalue of the overlap matrix: 0.444540E-03
 CPU time [min]:     0.209                   Wall time [min]:     0.158
 
 Calculation of kinetic energy integrals...
 CPU time [min]:     0.211                   Wall time [min]:     0.158
 Calculation of dipole moment integrals...
 CPU time [min]:     0.213                   Wall time [min]:     0.158
 Calculation of nuclear attraction integrals...
 CPU time [min]:     0.216                   Wall time [min]:     0.158
 
 Calculation of prescreening integrals...
 CPU time [min]:     0.342                   Wall time [min]:     0.171
 
 Calculation of two-center Coulomb integrals...
   1% done.
  12% done.
  23% done.
  34% done.
  45% done.
  57% done.
  69% done.
  80% done.
  91% done.
 100% done.
 CPU time [min]:     0.413                   Wall time [min]:     0.174
 
 Cholesky decomposition of the two-center matrix...
 Reciprocal of the condition number:  0.389246E-06
 Warning! Ill-conditioned two-center integral matrix.
 This may result in convergence problems.
 CPU time [min]:     0.559                   Wall time [min]:     0.178
 
 
 Running small-basis SCF...

 ************************ 2023-04-25 23:54:21 *************************
 Executing scf...

 @scfsetup: integrals calculated directly
            mrcc/integ direct run
 @scfsetup: calculating on full matrices
            not using symmetry adapted basis
 @scfsetup: diis switched on
 @scfsetup: number of steps to extrapolate from  10
 @scfsetup: tolerance in energy deviation    0.100000E-05
            tolerance in density deviation    0.100000E-06
 @scfsetup: maximum number of iterations:1000
 @scfsetup: restricted closed shell hf calc
 @scfsetup: starting scf from superposition of atomic densities
 @scfsetup: occupation set:
            from initial orbitals
 @scfsetup: Parameter-set for SCF acceleration: normal
 @scfsetup: diis runs from iteration:   2
 @scfsetup: diis runs to iteration:1000
 @scfsetup: diis runs in every iteration
 @scfsetup: diiswatch is disabled                   
 @scfsetup: diis dtol criteria to switch on:      0.0000E+00
           (or the iteration number below is reached)
 @scfsetup: static damping scheme
            iteration step criteria to turn damping off: 3
 @scfsetup: dynamic level shifting
            tolarance in HOMO-LUMO gap:  0.200
            tolarance in density deviation:     0.0000E+00
            iteration step criteria to turn level shifting off: 8
 Allocation of 200.0 Gbytes of memory...
 ======================================================================
 ITERATION STEP   1
 CPU time [min]:     0.053                   Wall time [min]:     0.010
 

 SCF control                  : initial
 Damping factor/level shift   : 0.000/0.200
 DIIS [start/end/frequency]   :   2 /*** /  1

 Constructing Fock-matrix...
 
 Pipek-Mezey localization...
 Step  Convergence
   1   1.002006635385
   2   0.270284384243
   3   0.004651257993
   4   0.000007549884
   5   0.000000000848
 CPU time [min]:     0.158                   Wall time [min]:     0.013
 
 Constructing local fitting domains...
 Maximum number of atoms in fitting domains:   16
 Average number of atoms in fitting domains:    7.1
 
 First step of Coulomb + first step of exchange...
 Exchange contribution is evaluated for MOs 1 to 7.
   1% done.
  12% done.
  23% done.
  34% done.
  48% done.
  59% done.
  73% done.
  85% done.
  97% done.
 100% done.
 Fitting and assembly step of exchange...
 CPU time [min]:     0.774                   Wall time [min]:     0.038
 
 Second step of Coulomb...
   1% done.
  12% done.
  23% done.
  34% done.
  48% done.
  59% done.
  73% done.
  85% done.
  97% done.
 100% done.
 CPU time [min]:     0.901                   Wall time [min]:     0.042
 
 Gradient norm:      1.6037E+00
 RMS of [F,P]:                                         0.00670841474914
 RMS of difference density:                            0.00457084929201
 Gap [au]:  0.61690975
 ALPHA OCC:   7
 BETA  OCC:   7
 
 ***HARTREE-FOCK ENERGY IN STEP   1 IS       -112.4048876617433166 [AU]
 ======================================================================
 ITERATION STEP   2
 CPU time [min]:     0.941                   Wall time [min]:     0.043
 

 SCF control                  : diis
 Damping factor/level shift   : 0.000/0.000
 DIIS [start/end/frequency]   :   2 /*** /  1

 Constructing Fock-matrix...
 
 Pipek-Mezey localization...
 Step  Convergence
   1   0.061794034920
   2   0.050505459641
   3   0.000994585888
   4   0.000000074179
 CPU time [min]:     0.971                   Wall time [min]:     0.044
 
 Constructing local fitting domains...
 Maximum number of atoms in fitting domains:   16
 Average number of atoms in fitting domains:    7.7
 
 First step of Coulomb + first step of exchange...
 Exchange contribution is evaluated for MOs 1 to 7.
   1% done.
  12% done.
  23% done.
  34% done.
  48% done.
  59% done.
  73% done.
  85% done.
  97% done.
 100% done.
 Fitting and assembly step of exchange...
 CPU time [min]:     1.224                   Wall time [min]:     0.051
 
 Second step of Coulomb...
   1% done.
  12% done.
  23% done.
  34% done.
  48% done.
  59% done.
  73% done.
  85% done.
  97% done.
 100% done.
 CPU time [min]:     1.350                   Wall time [min]:     0.055
 
 Gradient norm:      1.1650E-01
 DIIS is running in this iteration step.
 RMS of [F,P]:                                         0.00083682317056
 RMS of difference density:                            0.00110131286529
 Gap [au]:  0.56238198
 ALPHA OCC:   7
 BETA  OCC:   7
 
 ***HARTREE-FOCK ENERGY IN STEP   2 IS       -112.6350864835814605 [AU]
 
 Step comparison  Energy Drift [au]  DIIS error drift  Gradient drift
        1            2.3020E-01         5.8716E-03       1.4872E+00
        2            1.1264E+02         1.0000E-07       1.4872E+00
 ======================================================================
 ITERATION STEP   3
 CPU time [min]:     1.377                   Wall time [min]:     0.056
 

 SCF control                  : diis
 Damping factor/level shift   : 0.000/0.000
 DIIS [start/end/frequency]   :   2 /*** /  1

 Constructing Fock-matrix...
 
 Pipek-Mezey localization...
 Step  Convergence
   1   0.583185676480
   2   0.102493664972
   3   0.003079250306
   4   0.000022266117
   5   0.000000003056
 CPU time [min]:     1.397                   Wall time [min]:     0.057
 
 Constructing local fitting domains...
 Local fitting domains are unchanged.
 
 First step of Coulomb + first step of exchange...
 Exchange contribution is evaluated for MOs 1 to 7.
   1% done.
  12% done.
  23% done.
  34% done.
  48% done.
  59% done.
  73% done.
  85% done.
  97% done.
 100% done.
 Fitting and assembly step of exchange...
 CPU time [min]:     1.648                   Wall time [min]:     0.064
 
 Second step of Coulomb...
   1% done.
  12% done.
  23% done.
  34% done.
  48% done.
  59% done.
  73% done.
  85% done.
  97% done.
 100% done.
 CPU time [min]:     1.775                   Wall time [min]:     0.067
 
 Gradient norm:      3.2518E-02
 DIIS is running in this iteration step.
 RMS of [F,P]:                                         0.00019792244747
 RMS of difference density:                            0.00026388854007
 Gap [au]:  0.58246095
 ALPHA OCC:   7
 BETA  OCC:   7
 
 ***HARTREE-FOCK ENERGY IN STEP   3 IS       -112.6438358233114343 [AU]
 
 Step comparison  Energy Drift [au]  DIIS error drift  Gradient drift
        2            8.7493E-03         6.3890E-04       8.3979E-02
 ======================================================================
 ITERATION STEP   4
 CPU time [min]:     1.799                   Wall time [min]:     0.068
 

 SCF control                  : diis
 Damping factor/level shift   : 0.000/0.000
 DIIS [start/end/frequency]   :   2 /*** /  1

 Constructing Fock-matrix...
 
 Pipek-Mezey localization...
 Step  Convergence
   1   0.090430288245
   2   0.083423670237
   3   0.003379576480
   4   0.000000179610
   5   0.000000000014
   6   0.000000000000
 CPU time [min]:     1.819                   Wall time [min]:     0.068
 
 Constructing local fitting domains...
 Local fitting domains are unchanged.
 
 First step of Coulomb + first step of exchange...
 Exchange contribution is evaluated for MOs 1 to 7.
   1% done.
  12% done.
  23% done.
  34% done.
  48% done.
  59% done.
  73% done.
  85% done.
  97% done.
 100% done.
 Fitting and assembly step of exchange...
 CPU time [min]:     2.070                   Wall time [min]:     0.075
 
 Second step of Coulomb...
   1% done.
  12% done.
  23% done.
  34% done.
  48% done.
  59% done.
  73% done.
  85% done.
  97% done.
 100% done.
 CPU time [min]:     2.196                   Wall time [min]:     0.079
 
 Gradient norm:      6.2894E-03
 DIIS is running in this iteration step.
 RMS of [F,P]:                                         0.00005891396026
 RMS of difference density:                            0.00009464754193
 Gap [au]:  0.58157536
 ALPHA OCC:   7
 BETA  OCC:   7
 
 ***HARTREE-FOCK ENERGY IN STEP   4 IS       -112.6444916100451223 [AU]
 
 Step comparison  Energy Drift [au]  DIIS error drift  Gradient drift
        3            6.5579E-04         1.3901E-04       2.6229E-02
 ======================================================================
 ITERATION STEP   5
 CPU time [min]:     2.221                   Wall time [min]:     0.080
 

 SCF control                  : diis
 Damping factor/level shift   : 0.000/0.000
 DIIS [start/end/frequency]   :   2 /*** /  1

 Constructing Fock-matrix...
 
 Pipek-Mezey localization...
 Step  Convergence
   1   0.568665729198
   2   0.563610508844
   3   0.061246831624
   4   0.061003858446
   5   0.000000036187
   6   0.000000000020
   7   0.000000000000
 CPU time [min]:     2.242                   Wall time [min]:     0.080
 
 Constructing local fitting domains...
 Local fitting domains are unchanged.
 
 First step of Coulomb + first step of exchange...
 Exchange contribution is evaluated for MOs 1 to 7.
   1% done.
  12% done.
  23% done.
  34% done.
  48% done.
  59% done.
  73% done.
  85% done.
  97% done.
 100% done.
 Fitting and assembly step of exchange...
 CPU time [min]:     2.493                   Wall time [min]:     0.087
 
 Second step of Coulomb...
   1% done.
  12% done.
  23% done.
  34% done.
  48% done.
  59% done.
  73% done.
  85% done.
  97% done.
 100% done.
 CPU time [min]:     2.620                   Wall time [min]:     0.091
 
 Gradient norm:      5.0953E-03
 DIIS is running in this iteration step.
 RMS of [F,P]:                                         0.00003339511207
 RMS of difference density:                            0.00003561071073
 Gap [au]:  0.58092446
 ALPHA OCC:   7
 BETA  OCC:   7
 
 ***HARTREE-FOCK ENERGY IN STEP   5 IS       -112.6445872923030578 [AU]
 
 Step comparison  Energy Drift [au]  DIIS error drift  Gradient drift
        4            9.5682E-05         2.5519E-05       1.1941E-03
 ======================================================================
 ITERATION STEP   6
 CPU time [min]:     2.644                   Wall time [min]:     0.091
 

 SCF control                  : diis
 Damping factor/level shift   : 0.000/0.000
 DIIS [start/end/frequency]   :   2 /*** /  1

 Constructing Fock-matrix...
 
 Pipek-Mezey localization...
 Step  Convergence
   1   0.592214873752
   2   0.583527669830
   3   0.002670673749
   4   0.000000239194
   5   0.000000000059
   6   0.000000000000
 CPU time [min]:     2.664                   Wall time [min]:     0.092
 
 Constructing local fitting domains...
 Local fitting domains are unchanged.
 
 First step of Coulomb + first step of exchange...
 Exchange contribution is evaluated for MOs 1 to 7.
   1% done.
  12% done.
  23% done.
  34% done.
  48% done.
  59% done.
  73% done.
  85% done.
  97% done.
 100% done.
 Fitting and assembly step of exchange...
 CPU time [min]:     2.916                   Wall time [min]:     0.099
 
 Second step of Coulomb...
   1% done.
  12% done.
  23% done.
  34% done.
  48% done.
  59% done.
  73% done.
  85% done.
  97% done.
 100% done.
 CPU time [min]:     3.042                   Wall time [min]:     0.103
 
 Gradient norm:      6.3366E-04
 DIIS is running in this iteration step.
 RMS of [F,P]:                                         0.00000599449333
 RMS of difference density:                            0.00001473877873
 Gap [au]:  0.58105153
 ALPHA OCC:   7
 BETA  OCC:   7
 
 ***HARTREE-FOCK ENERGY IN STEP   6 IS       -112.6445982378294701 [AU]
 
 Step comparison  Energy Drift [au]  DIIS error drift  Gradient drift
        5            1.0946E-05         2.7401E-05       4.4616E-03
 ======================================================================
 ITERATION STEP   7
 CPU time [min]:     3.066                   Wall time [min]:     0.103
 

 SCF control                  : diis
 Damping factor/level shift   : 0.000/0.000
 DIIS [start/end/frequency]   :   2 /*** /  1

 Constructing Fock-matrix...
 
 Pipek-Mezey localization...
 Step  Convergence
   1   0.635767946911
   2   0.616397005567
   3   0.013207945553
   4   0.000098292696
   5   0.000000003214
   6   0.000000000000
 CPU time [min]:     3.086                   Wall time [min]:     0.104
 
 Constructing local fitting domains...
 Local fitting domains are unchanged.
 
 First step of Coulomb + first step of exchange...
 Exchange contribution is evaluated for MOs 1 to 7.
   1% done.
  12% done.
  23% done.
  34% done.
  48% done.
  59% done.
  73% done.
  85% done.
  97% done.
 100% done.
 Fitting and assembly step of exchange...
 CPU time [min]:     3.337                   Wall time [min]:     0.111
 
 Second step of Coulomb...
   1% done.
  12% done.
  23% done.
  34% done.
  48% done.
  59% done.
  73% done.
  85% done.
  97% done.
 100% done.
 CPU time [min]:     3.463                   Wall time [min]:     0.114
 
 Gradient norm:      2.0384E-04
 DIIS is running in this iteration step.
 RMS of [F,P]:                                         0.00000130982451
 RMS of difference density:                            0.00000226031203
 Gap [au]:  0.58099673
 ALPHA OCC:   7
 BETA  OCC:   7
 
 ***HARTREE-FOCK ENERGY IN STEP   7 IS       -112.6445994002386044 [AU]
 
 Step comparison  Energy Drift [au]  DIIS error drift  Gradient drift
        6            1.1624E-06         4.6847E-06       4.2982E-04
 ======================================================================
 ITERATION STEP   8
 CPU time [min]:     3.487                   Wall time [min]:     0.115
 

 SCF control                  : diis
 Damping factor/level shift   : 0.000/0.000
 DIIS [start/end/frequency]   :   2 /*** /  1

 Constructing Fock-matrix...
 
 Pipek-Mezey localization...
 Step  Convergence
   1   0.564302334894
   2   0.566018346763
   3   0.002465154217
   4   0.000000204559
   5   0.000000000009
   6   0.000000000000
 CPU time [min]:     3.507                   Wall time [min]:     0.116
 
 Constructing local fitting domains...
 Local fitting domains are unchanged.
 
 First step of Coulomb + first step of exchange...
 Exchange contribution is evaluated for MOs 1 to 7.
   1% done.
  12% done.
  23% done.
  34% done.
  48% done.
  59% done.
  73% done.
  85% done.
  97% done.
 100% done.
 Fitting and assembly step of exchange...
 CPU time [min]:     3.758                   Wall time [min]:     0.123
 
 Second step of Coulomb...
   1% done.
  12% done.
  23% done.
  34% done.
  48% done.
  59% done.
  73% done.
  85% done.
  97% done.
 100% done.
 CPU time [min]:     3.886                   Wall time [min]:     0.126
 
 Gradient norm:      2.4823E-05
 DIIS is running in this iteration step.
 RMS of [F,P]:                                         0.00000017016163
 RMS of difference density:                            0.00000045144363
 Gap [au]:  0.58100388
 ALPHA OCC:   7
 BETA  OCC:   7
 
 ***HARTREE-FOCK ENERGY IN STEP   8 IS       -112.6445994312356760 [AU]
 
 Step comparison  Energy Drift [au]  DIIS error drift  Gradient drift
        7            3.0997E-08         1.1397E-06       1.7902E-04
 ======================================================================
 ITERATION STEP   9
 CPU time [min]:     3.912                   Wall time [min]:     0.127
 

 SCF control                  : diis
 Damping factor/level shift   : 0.000/0.000
 DIIS [start/end/frequency]   :   2 /*** /  1

 Constructing Fock-matrix...
 
 Pipek-Mezey localization...
 Step  Convergence
   1   0.559474284890
   2   0.562368664910
   3   0.000921783493
   4   0.000000198198
   5   0.000000000006
   6   0.000000000000
 CPU time [min]:     3.932                   Wall time [min]:     0.127
 
 Constructing local fitting domains...
 Local fitting domains are unchanged.
 
 First step of Coulomb + first step of exchange...
 Exchange contribution is evaluated for MOs 1 to 7.
   1% done.
  12% done.
  23% done.
  34% done.
  48% done.
  59% done.
  73% done.
  85% done.
  97% done.
 100% done.
 Fitting and assembly step of exchange...
 CPU time [min]:     4.183                   Wall time [min]:     0.134
 
 Second step of Coulomb...
   1% done.
  12% done.
  23% done.
  34% done.
  48% done.
  59% done.
  73% done.
  85% done.
  97% done.
 100% done.
 CPU time [min]:     4.311                   Wall time [min]:     0.138
 
 Gradient norm:      2.5624E-06
 DIIS is running in this iteration step.
 RMS of [F,P]:                                         0.00000002335276
 RMS of difference density:                            0.00000007395449
 Gap [au]:  0.58100291
 ALPHA OCC:   7
 BETA  OCC:   7
 
 ***HARTREE-FOCK ENERGY IN STEP   9 IS       -112.6445994318318071 [AU]
 
 Step comparison  Energy Drift [au]  DIIS error drift  Gradient drift
        8            5.9613E-10         1.4681E-07       2.2261E-05
 
 The SCF iteration has converged.
 An extra iteration will be performed to calculate accurate SCF energy.
 
 ======================================================================
 ITERATION STEP  10
 CPU time [min]:     4.337                   Wall time [min]:     0.139
 

 SCF control                  : diis
 Damping factor/level shift   : 0.000/0.000
 DIIS [start/end/frequency]   :   2 /*** /  1

 Constructing Fock-matrix...
 
 Pipek-Mezey localization...
 Step  Convergence
   1   0.563282610494
   2   0.555371897441
   3   0.000074932112
   4   0.000000181295
   5   0.000000000000
 CPU time [min]:     4.357                   Wall time [min]:     0.139
 
 Constructing local fitting domains...
 Maximum number of atoms in fitting domains:   20
 Average number of atoms in fitting domains:   19.3
 
 First step of Coulomb + first step of exchange...
 Exchange contribution is evaluated for MOs 1 to 7.
   1% done.
  12% done.
  23% done.
  34% done.
  48% done.
  59% done.
  73% done.
  85% done.
  97% done.
 100% done.
 Fitting and assembly step of exchange...
 CPU time [min]:     4.723                   Wall time [min]:     0.149
 
 Second step of Coulomb...
   1% done.
  12% done.
  23% done.
  34% done.
  48% done.
  59% done.
  73% done.
  85% done.
  97% done.
 100% done.
 CPU time [min]:     4.851                   Wall time [min]:     0.153
 
 Gradient norm:      5.1808E-05
 RMS of [F,P]:                                         0.00000023518602
 RMS of difference density:                            0.00000043643735
 Gap [au]:  0.58100424
 ALPHA OCC:   7
 BETA  OCC:   7
 
 ***HARTREE-FOCK ENERGY IN STEP  10 IS       -112.6446054665259311 [AU]
 
 Step comparison  Energy Drift [au]  DIIS error drift  Gradient drift
        9            6.0347E-06        -2.1183E-07      -4.9246E-05
 Warning! The DIIS error goes uphill (with respect to previous step).
 Warning! The DIIS error goes uphill (with respect to step   9 ).
 Warning! The gradient goes uphill (with respect to previous step).
 Warning! The gradient goes uphill (with respect to step   9 ).
 ======================================================================
 
 SUCCESS...
 THE SCF ITERATION HAS CONVERGED!
 
                   A   
 FINAL ALPHA OCC:   7
 FINAL BETA  OCC:   7
 
 ***FINAL HARTREE-FOCK ENERGY:       -112.6446054665259311 [AU]
 
 Orbital energies [au]:
      Irrep         Alpha          Beta
    1   A        -20.670537     -20.670537
    2   A        -11.381062     -11.381062
    3   A         -1.498888      -1.498888
    4   A         -0.798204      -0.798204
    5   A         -0.637135      -0.637135
    6   A         -0.637135      -0.637135
    7   A         -0.554978      -0.554978
 
    8   A          0.026026       0.026026
    9   A          0.040767       0.040767
   10   A          0.040767       0.040767
   11   A          0.050407       0.050407
   12   A          0.066995       0.066995
   13   A          0.070393       0.070393
   14   A          0.070746       0.070746
   15   A          0.070746       0.070746
   16   A          0.096419       0.096419
   17   A          0.111105       0.111105
   18   A          0.111105       0.111105
   19   A          0.132285       0.132285
   20   A          0.132386       0.132386
   21   A          0.135358       0.135358
   22   A          0.135358       0.135358
   23   A          0.147115       0.147115
   24   A          0.150186       0.150186
   25   A          0.151177       0.151177
   26   A          0.151177       0.151177
   27   A          0.166241       0.166241
   28   A          0.173571       0.173571
   29   A          0.175057       0.175057
   30   A          0.175057       0.175057
   31   A          0.188733       0.188733
   32   A          0.189869       0.189869
   33   A          0.189869       0.189869
   34   A          0.193044       0.193044
   35   A          0.195903       0.195903
   36   A          0.209346       0.209346
   37   A          0.212671       0.212671
   38   A          0.212671       0.212671
   39   A          0.220454       0.220454
   40   A          0.229925       0.229925
   41   A          0.229925       0.229925
   42   A          0.238306       0.238306
   43   A          0.250241       0.250241
   44   A          0.250241       0.250241
   45   A          0.252273       0.252273
   46   A          0.274947       0.274947
   47   A          0.276862       0.276862
   48   A          0.297023       0.297023
   49   A          0.303660       0.303660
   50   A          0.303660       0.303660
   51   A          0.333115       0.333115
   52   A          0.343445       0.343445
   53   A          0.357774       0.357774
   54   A          0.357774       0.357774
   55   A          0.370804       0.370804
   56   A          0.373493       0.373493
   57   A          0.373493       0.373493
   58   A          0.374349       0.374349
   59   A          0.404088       0.404088
   60   A          0.423944       0.423944
   61   A          0.425810       0.425810
   62   A          0.425810       0.425810
   63   A          0.435196       0.435196
   64   A          0.435196       0.435196
   65   A          0.445324       0.445324
   66   A          0.451608       0.451608
   67   A          0.456841       0.456841
   68   A          0.458313       0.458313
   69   A          0.465284       0.465284
   70   A          0.465284       0.465284
   71   A          0.478340       0.478340
   72   A          0.478909       0.478909
   73   A          0.492776       0.492776
   74   A          0.493416       0.493416
   75   A          0.493416       0.493416
   76   A          0.506517       0.506517
   77   A          0.507744       0.507744
   78   A          0.515117       0.515117
   79   A          0.515117       0.515117
   80   A          0.517423       0.517423
   81   A          0.517423       0.517423
   82   A          0.521779       0.521779
   83   A          0.523655       0.523655
   84   A          0.536238       0.536238
   85   A          0.536238       0.536238
   86   A          0.540697       0.540697
   87   A          0.547338       0.547338
   88   A          0.554861       0.554861
   89   A          0.555539       0.555539
   90   A          0.555539       0.555539
   91   A          0.573533       0.573533
   92   A          0.583990       0.583990
   93   A          0.584958       0.584958
   94   A          0.584958       0.584958
   95   A          0.607265       0.607265
   96   A          0.607265       0.607265
   97   A          0.611642       0.611642
   98   A          0.633004       0.633004
   99   A          0.647585       0.647585
  100   A          0.651464       0.651464
  101   A          0.660430       0.660430
  102   A          0.677329       0.677329
  103   A          0.677329       0.677329
  104   A          0.686730       0.686730
  105   A          0.702832       0.702832
  106   A          0.707799       0.707799
  107   A          0.716561       0.716561
  108   A          0.716561       0.716561
  109   A          0.723565       0.723565
  110   A          0.726391       0.726391
  111   A          0.726391       0.726391
  112   A          0.740003       0.740003
  113   A          0.743626       0.743626
  114   A          0.743626       0.743626
  115   A          0.756988       0.756988
  116   A          0.764188       0.764188
  117   A          0.789035       0.789035
  118   A          0.789035       0.789035
  119   A          0.818661       0.818661
  120   A          0.825620       0.825620
  121   A          0.845975       0.845975
  122   A          0.845975       0.845975
  123   A          0.853044       0.853044
  124   A          0.870879       0.870879
  125   A          0.870879       0.870879
  126   A          0.885039       0.885039
  127   A          0.885039       0.885039
  128   A          0.885577       0.885577
  129   A          0.887139       0.887139
  130   A          0.895899       0.895899
  131   A          0.901444       0.901444
  132   A          0.901444       0.901444
  133   A          0.938634       0.938634
  134   A          0.959017       0.959017
  135   A          0.972972       0.972972
  136   A          0.974721       0.974721
  137   A          0.974721       0.974721
  138   A          0.977270       0.977270
  139   A          0.977748       0.977748
  140   A          1.025778       1.025778
  141   A          1.025778       1.025778
  142   A          1.041692       1.041692
  143   A          1.063247       1.063247
  144   A          1.078931       1.078931
  145   A          1.088326       1.088326
  146   A          1.113931       1.113931
  147   A          1.113931       1.113931
  148   A          1.144689       1.144689
  149   A          1.144689       1.144689
  150   A          1.164878       1.164878
  151   A          1.164932       1.164932
  152   A          1.169774       1.169774
  153   A          1.182500       1.182500
  154   A          1.183504       1.183504
  155   A          1.208965       1.208965
  156   A          1.208965       1.208965
  157   A          1.228474       1.228474
  158   A          1.228474       1.228474
  159   A          1.246969       1.246969
  160   A          1.254658       1.254658
  161   A          1.262445       1.262445
  162   A          1.305668       1.305668
  163   A          1.305668       1.305668
  164   A          1.317221       1.317221
  165   A          1.359612       1.359612
  166   A          1.390327       1.390327
  167   A          1.390327       1.390327
  168   A          1.410611       1.410611
  169   A          1.410611       1.410611
  170   A          1.492770       1.492770
  171   A          1.773701       1.773701
  172   A          1.909655       1.909655
  173   A          1.943118       1.943118
  174   A          1.997349       1.997349
  175   A          1.997349       1.997349
  176   A          2.407593       2.407593
  177   A          2.431481       2.431481
  178   A          2.441377       2.441377
  179   A          2.441377       2.441377
  180   A          2.483949       2.483949
  181   A          2.485277       2.485277
  182   A          2.485277       2.485277
  183   A          2.527904       2.527904
  184   A          2.615706       2.615706
  185   A          2.812226       2.812226
  186   A          2.958500       2.958500
  187   A          2.961903       2.961903
  188   A          2.984317       2.984317
  189   A          3.005035       3.005035
  190   A          3.005035       3.005035
  191   A          3.069888       3.069888
  192   A          3.095782       3.095782
  193   A          3.113111       3.113111
  194   A          3.202261       3.202261
  195   A          3.202261       3.202261
  196   A          3.428635       3.428635
  197   A          3.541827       3.541827
  198   A          3.541827       3.541827
  199   A          4.050463       4.050463
  200   A          4.205968       4.205968
  201   A          4.208311       4.208311
  202   A          4.209377       4.209377
  203   A          4.209859       4.209859
  204   A          4.209859       4.209859
  205   A          4.220330       4.220330
  206   A          4.220330       4.220330
  207   A          4.220667       4.220667
  208   A          4.221992       4.221992
  209   A          4.227153       4.227153
  210   A          4.228545       4.228545
  211   A          4.228545       4.228545
  212   A          4.233421       4.233421
  213   A          4.246409       4.246409
  214   A          4.248814       4.248814
  215   A          4.262565       4.262565
  216   A          4.268806       4.268806
  217   A          4.268806       4.268806
  218   A          4.275526       4.275526
  219   A          4.279093       4.279093
  220   A          4.279093       4.279093
  221   A          4.285266       4.285266
  222   A          4.285266       4.285266
  223   A          4.293022       4.293022
  224   A          4.293563       4.293563
  225   A          4.298214       4.298214
  226   A          4.298214       4.298214
  227   A          4.308737       4.308737
  228   A          4.315652       4.315652
  229   A          4.318555       4.318555
  230   A          4.318555       4.318555
  231   A          4.326649       4.326649
  232   A          4.338364       4.338364
  233   A          4.338364       4.338364
  234   A          4.341997       4.341997
  235   A          4.342944       4.342944
  236   A          4.342944       4.342944
  237   A          4.355408       4.355408
  238   A          4.360412       4.360412
  239   A          4.362475       4.362475
  240   A          4.375658       4.375658
  241   A          4.375658       4.375658
  242   A          4.392930       4.392930
  243   A          4.406989       4.406989
  244   A          4.417513       4.417513
  245   A          5.581209       5.581209
  246   A          5.619787       5.619787
  247   A          5.619787       5.619787
  248   A          5.656239       5.656239
  249   A          5.682001       5.682001
  250   A          5.701375       5.701375
  251   A          5.701375       5.701375
  252   A          5.704186       5.704186
  253   A          5.717360       5.717360
  254   A          5.717360       5.717360
  255   A          5.751856       5.751856
  256   A          5.757504       5.757504
  257   A          5.778707       5.778707
  258   A          5.808445       5.808445
  259   A          5.818496       5.818496
  260   A          5.818496       5.818496
  261   A          5.827286       5.827286
  262   A          5.827286       5.827286
  263   A          5.887365       5.887365
  264   A          5.904086       5.904086
  265   A          5.960951       5.960951
  266   A          5.963914       5.963914
  267   A          5.984830       5.984830
  268   A          5.984830       5.984830
  269   A          6.095217       6.095217
  270   A          6.159191       6.159191
  271   A          6.159191       6.159191
  272   A          8.807547       8.807547
  273   A          8.822814       8.822814
  274   A          8.822814       8.822814
  275   A          8.837044       8.837044
  276   A          8.846670       8.846670
  277   A          8.888276       8.888276
  278   A          8.906021       8.906021
  279   A          8.906021       8.906021
  280   A          8.943850       8.943850
  281   A          8.977867       8.977867
  282   A          8.977867       8.977867
  283   A          8.995407       8.995407
  284   A          8.995407       8.995407
  285   A          9.038660       9.038660
  286   A          9.043160       9.043160
  287   A          9.047138       9.047138
  288   A          9.056712       9.056712
  289   A          9.115380       9.115380
  290   A          9.134493       9.134493
  291   A          9.134493       9.134493
  292   A          9.142131       9.142131
  293   A          9.205612       9.205612
  294   A          9.205797       9.205797
  295   A          9.205797       9.205797
  296   A          9.220765       9.220765
  297   A          9.242416       9.242416
  298   A          9.242416       9.242416
  299   A         34.618811      34.618811
  300   A         34.668312      34.668312
  301   A         34.668312      34.668312
  302   A         34.696541      34.696541
  303   A         34.780448      34.780448
  304   A         34.787402      34.787402
  305   A         34.787402      34.787402
  306   A         34.935936      34.935936
  307   A         34.957822      34.957822
  308   A         74.516080      74.516080
  309   A         74.613532      74.613532
  310   A         74.613532      74.613532
  311   A         74.678279      74.678279
  312   A         74.681557      74.681557
  313   A         74.774748      74.774748
  314   A         74.792740      74.792740
  315   A         74.792740      74.792740
  316   A         75.004658      75.004658
 
 RETURNING FROM SCF ALGORITHM
 ======================================================================

 ************************ 2023-04-25 23:54:31 *************************
 Executing integ...

 Allocation of 200.0 Gbytes of memory...
 
 
 Number of atoms:                 20
 Charge:                           0
 Number of electrons:             14
 Number of core electrons:         4
 Spin multiplicity:                1
 
                 Cartesian coordinates [bohr]      Atomic mass [AMU]  Z
   1  C     0.00000000    0.00000000    4.59825988    12.000000       6
   2  O     0.00000000    0.00000000    6.76543524    15.994915       8
   3  Mg    0.00000000    0.00000000   -0.01460385     0.000000       0
   4  O    -4.00656758    0.00000000   -0.00388515     0.000000       0
   5  O     0.00000000    4.00656758   -0.00388515     0.000000       0
   6  O     4.00656758    0.00000000   -0.00388515     0.000000       0
   7  O     0.00000000   -4.00656758   -0.00388515     0.000000       0
   8  O     0.00000000    0.00000000   -4.06107376     0.000000       0
   9  Mg   -3.99004829    3.99004829   -0.09713356     0.000000       0
  10  Mg    3.99004829    3.99004829   -0.09713356     0.000000       0
  11  Mg    3.99004829   -3.99004829   -0.09713356     0.000000       0
[...]
  192   14Mg4f-2      14Mg4f-1      14Mg4f0       14Mg4f+1      14Mg4f+2      14Mg4f+3      14Mg5f-3      14Mg5f-2      14Mg5f-1      14Mg5f0    
  193   14Mg5f+1      14Mg5f+2      14Mg5f+3      14Mg6f-3      14Mg6f-2      14Mg6f-1      14Mg6f0       14Mg6f+1      14Mg6f+2      14Mg6f+3   
  194   14Mg7f-3      14Mg7f-2      14Mg7f-1      14Mg7f0       14Mg7f+1      14Mg7f+2      14Mg7f+3      14Mg1g-4      14Mg1g-3      14Mg1g-2   
  195   14Mg1g-1      14Mg1g0       14Mg1g+1      14Mg1g+2      14Mg1g+3      14Mg1g+4      14Mg2g-4      14Mg2g-3      14Mg2g-2      14Mg2g-1   
  196   14Mg2g0       14Mg2g+1      14Mg2g+2      14Mg2g+3      14Mg2g+4      14Mg3g-4      14Mg3g-3      14Mg3g-2      14Mg3g-1      14Mg3g0    
  197   14Mg3g+1      14Mg3g+2      14Mg3g+3      14Mg3g+4      15Mg1s        15Mg2s        15Mg3s        15Mg4s        15Mg5s        15Mg6s     
  198   15Mg7s        15Mg8s        15Mg9s        15Mg10s       15Mg11s       15Mg12s       15Mg13s       15Mg14s       15Mg1pz       15Mg1py    
  199   15Mg1px       15Mg2pz       15Mg2py       15Mg2px       15Mg3pz       15Mg3py       15Mg3px       15Mg4pz       15Mg4py       15Mg4px    
  200   15Mg5pz       15Mg5py       15Mg5px       15Mg6pz       15Mg6py       15Mg6px       15Mg7pz       15Mg7py       15Mg7px       15Mg8pz    
  201   15Mg8py       15Mg8px       15Mg9pz       15Mg9py       15Mg9px       15Mg10pz      15Mg10py      15Mg10px      15Mg11pz      15Mg11py   
  202   15Mg11px      15Mg12pz      15Mg12py      15Mg12px      15Mg1d-2      15Mg1d-1      15Mg1d0       15Mg1d+1      15Mg1d+2      15Mg2d-2   
  203   15Mg2d-1      15Mg2d0       15Mg2d+1      15Mg2d+2      15Mg3d-2      15Mg3d-1      15Mg3d0       15Mg3d+1      15Mg3d+2      15Mg4d-2   
  204   15Mg4d-1      15Mg4d0       15Mg4d+1      15Mg4d+2      15Mg5d-2      15Mg5d-1      15Mg5d0       15Mg5d+1      15Mg5d+2      15Mg6d-2   
  205   15Mg6d-1      15Mg6d0       15Mg6d+1      15Mg6d+2      15Mg7d-2      15Mg7d-1      15Mg7d0       15Mg7d+1      15Mg7d+2      15Mg8d-2   
  206   15Mg8d-1      15Mg8d0       15Mg8d+1      15Mg8d+2      15Mg9d-2      15Mg9d-1      15Mg9d0       15Mg9d+1      15Mg9d+2      15Mg10d-2  
  207   15Mg10d-1     15Mg10d0      15Mg10d+1     15Mg10d+2     15Mg1f-3      15Mg1f-2      15Mg1f-1      15Mg1f0       15Mg1f+1      15Mg1f+2   
  208   15Mg1f+3      15Mg2f-3      15Mg2f-2      15Mg2f-1      15Mg2f0       15Mg2f+1      15Mg2f+2      15Mg2f+3      15Mg3f-3      15Mg3f-2   
  209   15Mg3f-1      15Mg3f0       15Mg3f+1      15Mg3f+2      15Mg3f+3      15Mg4f-3      15Mg4f-2      15Mg4f-1      15Mg4f0       15Mg4f+1   
  210   15Mg4f+2      15Mg4f+3      15Mg5f-3      15Mg5f-2      15Mg5f-1      15Mg5f0       15Mg5f+1      15Mg5f+2      15Mg5f+3      15Mg6f-3   
  211   15Mg6f-2      15Mg6f-1      15Mg6f0       15Mg6f+1      15Mg6f+2      15Mg6f+3      15Mg7f-3      15Mg7f-2      15Mg7f-1      15Mg7f0    
  212   15Mg7f+1      15Mg7f+2      15Mg7f+3      15Mg1g-4      15Mg1g-3      15Mg1g-2      15Mg1g-1      15Mg1g0       15Mg1g+1      15Mg1g+2   
  213   15Mg1g+3      15Mg1g+4      15Mg2g-4      15Mg2g-3      15Mg2g-2      15Mg2g-1      15Mg2g0       15Mg2g+1      15Mg2g+2      15Mg2g+3   
  214   15Mg2g+4      15Mg3g-4      15Mg3g-3      15Mg3g-2      15Mg3g-1      15Mg3g0       15Mg3g+1      15Mg3g+2      15Mg3g+3      15Mg3g+4   
  215   16Mg1s        16Mg2s        16Mg3s        16Mg4s        16Mg5s        16Mg6s        16Mg7s        16Mg8s        16Mg9s        16Mg10s    
  216   16Mg11s       16Mg12s       16Mg13s       16Mg14s       16Mg1pz       16Mg1py       16Mg1px       16Mg2pz       16Mg2py       16Mg2px    
  217   16Mg3pz       16Mg3py       16Mg3px       16Mg4pz       16Mg4py       16Mg4px       16Mg5pz       16Mg5py       16Mg5px       16Mg6pz    
  218   16Mg6py       16Mg6px       16Mg7pz       16Mg7py       16Mg7px       16Mg8pz       16Mg8py       16Mg8px       16Mg9pz       16Mg9py    
  219   16Mg9px       16Mg10pz      16Mg10py      16Mg10px      16Mg11pz      16Mg11py      16Mg11px      16Mg12pz      16Mg12py      16Mg12px   
  220   16Mg1d-2      16Mg1d-1      16Mg1d0       16Mg1d+1      16Mg1d+2      16Mg2d-2      16Mg2d-1      16Mg2d0       16Mg2d+1      16Mg2d+2   
  221   16Mg3d-2      16Mg3d-1      16Mg3d0       16Mg3d+1      16Mg3d+2      16Mg4d-2      16Mg4d-1      16Mg4d0       16Mg4d+1      16Mg4d+2   
  222   16Mg5d-2      16Mg5d-1      16Mg5d0       16Mg5d+1      16Mg5d+2      16Mg6d-2      16Mg6d-1      16Mg6d0       16Mg6d+1      16Mg6d+2   
  223   16Mg7d-2      16Mg7d-1      16Mg7d0       16Mg7d+1      16Mg7d+2      16Mg8d-2      16Mg8d-1      16Mg8d0       16Mg8d+1      16Mg8d+2   
  224   16Mg9d-2      16Mg9d-1      16Mg9d0       16Mg9d+1      16Mg9d+2      16Mg10d-2     16Mg10d-1     16Mg10d0      16Mg10d+1     16Mg10d+2  
  225   16Mg1f-3      16Mg1f-2      16Mg1f-1      16Mg1f0       16Mg1f+1      16Mg1f+2      16Mg1f+3      16Mg2f-3      16Mg2f-2      16Mg2f-1   
  226   16Mg2f0       16Mg2f+1      16Mg2f+2      16Mg2f+3      16Mg3f-3      16Mg3f-2      16Mg3f-1      16Mg3f0       16Mg3f+1      16Mg3f+2   
  227   16Mg3f+3      16Mg4f-3      16Mg4f-2      16Mg4f-1      16Mg4f0       16Mg4f+1      16Mg4f+2      16Mg4f+3      16Mg5f-3      16Mg5f-2   
  228   16Mg5f-1      16Mg5f0       16Mg5f+1      16Mg5f+2      16Mg5f+3      16Mg6f-3      16Mg6f-2      16Mg6f-1      16Mg6f0       16Mg6f+1   
  229   16Mg6f+2      16Mg6f+3      16Mg7f-3      16Mg7f-2      16Mg7f-1      16Mg7f0       16Mg7f+1      16Mg7f+2      16Mg7f+3      16Mg1g-4   
  230   16Mg1g-3      16Mg1g-2      16Mg1g-1      16Mg1g0       16Mg1g+1      16Mg1g+2      16Mg1g+3      16Mg1g+4      16Mg2g-4      16Mg2g-3   
  231   16Mg2g-2      16Mg2g-1      16Mg2g0       16Mg2g+1      16Mg2g+2      16Mg2g+3      16Mg2g+4      16Mg3g-4      16Mg3g-3      16Mg3g-2   
  232   16Mg3g-1      16Mg3g0       16Mg3g+1      16Mg3g+2      16Mg3g+3      16Mg3g+4      17O1s         17O2s         17O3s         17O4s      
  233   17O5s         17O6s         17O7s         17O8s         17O9s         17O1pz        17O1py        17O1px        17O2pz        17O2py     
  234   17O2px        17O3pz        17O3py        17O3px        17O4pz        17O4py        17O4px        17O5pz        17O5py        17O5px     
  235   17O6pz        17O6py        17O6px        17O7pz        17O7py        17O7px        17O1d-2       17O1d-1       17O1d0        17O1d+1    
  236   17O1d+2       17O2d-2       17O2d-1       17O2d0        17O2d+1       17O2d+2       17O3d-2       17O3d-1       17O3d0        17O3d+1    
  237   17O3d+2       17O4d-2       17O4d-1       17O4d0        17O4d+1       17O4d+2       17O5d-2       17O5d-1       17O5d0        17O5d+1    
  238   17O5d+2       17O6d-2       17O6d-1       17O6d0        17O6d+1       17O6d+2       17O1f-3       17O1f-2       17O1f-1       17O1f0     
  239   17O1f+1       17O1f+2       17O1f+3       17O2f-3       17O2f-2       17O2f-1       17O2f0        17O2f+1       17O2f+2       17O2f+3    
  240   17O3f-3       17O3f-2       17O3f-1       17O3f0        17O3f+1       17O3f+2       17O3f+3       17O4f-3       17O4f-2       17O4f-1    
  241   17O4f0        17O4f+1       17O4f+2       17O4f+3       17O1g-4       17O1g-3       17O1g-2       17O1g-1       17O1g0        17O1g+1    
  242   17O1g+2       17O1g+3       17O1g+4       17O2g-4       17O2g-3       17O2g-2       17O2g-1       17O2g0        17O2g+1       17O2g+2    
  243   17O2g+3       17O2g+4       18O1s         18O2s         18O3s         18O4s         18O5s         18O6s         18O7s         18O8s      
  244   18O9s         18O1pz        18O1py        18O1px        18O2pz        18O2py        18O2px        18O3pz        18O3py        18O3px     
  245   18O4pz        18O4py        18O4px        18O5pz        18O5py        18O5px        18O6pz        18O6py        18O6px        18O7pz     
  246   18O7py        18O7px        18O1d-2       18O1d-1       18O1d0        18O1d+1       18O1d+2       18O2d-2       18O2d-1       18O2d0     
  247   18O2d+1       18O2d+2       18O3d-2       18O3d-1       18O3d0        18O3d+1       18O3d+2       18O4d-2       18O4d-1       18O4d0     
  248   18O4d+1       18O4d+2       18O5d-2       18O5d-1       18O5d0        18O5d+1       18O5d+2       18O6d-2       18O6d-1       18O6d0     
  249   18O6d+1       18O6d+2       18O1f-3       18O1f-2       18O1f-1       18O1f0        18O1f+1       18O1f+2       18O1f+3       18O2f-3    
  250   18O2f-2       18O2f-1       18O2f0        18O2f+1       18O2f+2       18O2f+3       18O3f-3       18O3f-2       18O3f-1       18O3f0     
  251   18O3f+1       18O3f+2       18O3f+3       18O4f-3       18O4f-2       18O4f-1       18O4f0        18O4f+1       18O4f+2       18O4f+3    
  252   18O1g-4       18O1g-3       18O1g-2       18O1g-1       18O1g0        18O1g+1       18O1g+2       18O1g+3       18O1g+4       18O2g-4    
  253   18O2g-3       18O2g-2       18O2g-1       18O2g0        18O2g+1       18O2g+2       18O2g+3       18O2g+4       19O1s         19O2s      
  254   19O3s         19O4s         19O5s         19O6s         19O7s         19O8s         19O9s         19O1pz        19O1py        19O1px     
  255   19O2pz        19O2py        19O2px        19O3pz        19O3py        19O3px        19O4pz        19O4py        19O4px        19O5pz     
  256   19O5py        19O5px        19O6pz        19O6py        19O6px        19O7pz        19O7py        19O7px        19O1d-2       19O1d-1    
  257   19O1d0        19O1d+1       19O1d+2       19O2d-2       19O2d-1       19O2d0        19O2d+1       19O2d+2       19O3d-2       19O3d-1    
  258   19O3d0        19O3d+1       19O3d+2       19O4d-2       19O4d-1       19O4d0        19O4d+1       19O4d+2       19O5d-2       19O5d-1    
  259   19O5d0        19O5d+1       19O5d+2       19O6d-2       19O6d-1       19O6d0        19O6d+1       19O6d+2       19O1f-3       19O1f-2    
  260   19O1f-1       19O1f0        19O1f+1       19O1f+2       19O1f+3       19O2f-3       19O2f-2       19O2f-1       19O2f0        19O2f+1    
  261   19O2f+2       19O2f+3       19O3f-3       19O3f-2       19O3f-1       19O3f0        19O3f+1       19O3f+2       19O3f+3       19O4f-3    
  262   19O4f-2       19O4f-1       19O4f0        19O4f+1       19O4f+2       19O4f+3       19O1g-4       19O1g-3       19O1g-2       19O1g-1    
  263   19O1g0        19O1g+1       19O1g+2       19O1g+3       19O1g+4       19O2g-4       19O2g-3       19O2g-2       19O2g-1       19O2g0     
  264   19O2g+1       19O2g+2       19O2g+3       19O2g+4       20O1s         20O2s         20O3s         20O4s         20O5s         20O6s      
  265   20O7s         20O8s         20O9s         20O1pz        20O1py        20O1px        20O2pz        20O2py        20O2px        20O3pz     
  266   20O3py        20O3px        20O4pz        20O4py        20O4px        20O5pz        20O5py        20O5px        20O6pz        20O6py     
  267   20O6px        20O7pz        20O7py        20O7px        20O1d-2       20O1d-1       20O1d0        20O1d+1       20O1d+2       20O2d-2    
  268   20O2d-1       20O2d0        20O2d+1       20O2d+2       20O3d-2       20O3d-1       20O3d0        20O3d+1       20O3d+2       20O4d-2    
  269   20O4d-1       20O4d0        20O4d+1       20O4d+2       20O5d-2       20O5d-1       20O5d0        20O5d+1       20O5d+2       20O6d-2    
  270   20O6d-1       20O6d0        20O6d+1       20O6d+2       20O1f-3       20O1f-2       20O1f-1       20O1f0        20O1f+1       20O1f+2    
  271   20O1f+3       20O2f-3       20O2f-2       20O2f-1       20O2f0        20O2f+1       20O2f+2       20O2f+3       20O3f-3       20O3f-2    
  272   20O3f-1       20O3f0        20O3f+1       20O3f+2       20O3f+3       20O4f-3       20O4f-2       20O4f-1       20O4f0        20O4f+1    
  273   20O4f+2       20O4f+3       20O1g-4       20O1g-3       20O1g-2       20O1g-1       20O1g0        20O1g+1       20O1g+2       20O1g+3    
  274   20O1g+4       20O2g-4       20O2g-3       20O2g-2       20O2g-1       20O2g0        20O2g+1       20O2g+2       20O2g+3       20O2g+4    
 
 Maximum number of basis functions per shell:   50
 Total number of basis functions:   2750
 
 
 Old basis set for SCF restart
 
   1  C  def2-svp [ 7s 4p 1d | 3s 2p 1d ]
   2  O  def2-svp [ 7s 4p 1d | 3s 2p 1d ]
   3  Mg def2-svp [ 10s 7p 1d | 4s 3p 1d ]
   4  O  def2-svp [ 7s 4p 1d | 3s 2p 1d ]
   5  O  def2-svp [ 7s 4p 1d | 3s 2p 1d ]
   6  O  def2-svp [ 7s 4p 1d | 3s 2p 1d ]
   7  O  def2-svp [ 7s 4p 1d | 3s 2p 1d ]
   8  O  def2-svp [ 7s 4p 1d | 3s 2p 1d ]
   9  Mg def2-svp [ 10s 7p 1d | 4s 3p 1d ]
  10  Mg def2-svp [ 10s 7p 1d | 4s 3p 1d ]
  11  Mg def2-svp [ 10s 7p 1d | 4s 3p 1d ]
  12  Mg def2-svp [ 10s 7p 1d | 4s 3p 1d ]
  13  Mg def2-svp [ 10s 7p 1d | 4s 3p 1d ]
  14  Mg def2-svp [ 10s 7p 1d | 4s 3p 1d ]
  15  Mg def2-svp [ 10s 7p 1d | 4s 3p 1d ]
  16  Mg def2-svp [ 10s 7p 1d | 4s 3p 1d ]
  17  O  def2-svp [ 7s 4p 1d | 3s 2p 1d ]
  18  O  def2-svp [ 7s 4p 1d | 3s 2p 1d ]
  19  O  def2-svp [ 7s 4p 1d | 3s 2p 1d ]
  20  O  def2-svp [ 7s 4p 1d | 3s 2p 1d ]
 
 Basis functions:
            1             2             3             4             5             6             7             8             9            10
    0    1C1s          1C2s          1C3s          1C1pz         1C1py         1C1px         1C2pz         1C2py         1C2px         1C1d-2    
    1    1C1d-1        1C1d0         1C1d+1        1C1d+2        2O1s          2O2s          2O3s          2O1pz         2O1py         2O1px     
    2    2O2pz         2O2py         2O2px         2O1d-2        2O1d-1        2O1d0         2O1d+1        2O1d+2        3Mg1s         3Mg2s     
    3    3Mg3s         3Mg4s         3Mg1pz        3Mg1py        3Mg1px        3Mg2pz        3Mg2py        3Mg2px        3Mg3pz        3Mg3py    
    4    3Mg3px        3Mg1d-2       3Mg1d-1       3Mg1d0        3Mg1d+1       3Mg1d+2       4O1s          4O2s          4O3s          4O1pz     
    5    4O1py         4O1px         4O2pz         4O2py         4O2px         4O1d-2        4O1d-1        4O1d0         4O1d+1        4O1d+2    
    6    5O1s          5O2s          5O3s          5O1pz         5O1py         5O1px         5O2pz         5O2py         5O2px         5O1d-2    
    7    5O1d-1        5O1d0         5O1d+1        5O1d+2        6O1s          6O2s          6O3s          6O1pz         6O1py         6O1px     
    8    6O2pz         6O2py         6O2px         6O1d-2        6O1d-1        6O1d0         6O1d+1        6O1d+2        7O1s          7O2s      
    9    7O3s          7O1pz         7O1py         7O1px         7O2pz         7O2py         7O2px         7O1d-2        7O1d-1        7O1d0     
   10    7O1d+1        7O1d+2        8O1s          8O2s          8O3s          8O1pz         8O1py         8O1px         8O2pz         8O2py     
   11    8O2px         8O1d-2        8O1d-1        8O1d0         8O1d+1        8O1d+2        9Mg1s         9Mg2s         9Mg3s         9Mg4s     
   12    9Mg1pz        9Mg1py        9Mg1px        9Mg2pz        9Mg2py        9Mg2px        9Mg3pz        9Mg3py        9Mg3px        9Mg1d-2   
   13    9Mg1d-1       9Mg1d0        9Mg1d+1       9Mg1d+2      10Mg1s        10Mg2s        10Mg3s        10Mg4s        10Mg1pz       10Mg1py    
   14   10Mg1px       10Mg2pz       10Mg2py       10Mg2px       10Mg3pz       10Mg3py       10Mg3px       10Mg1d-2      10Mg1d-1      10Mg1d0    
   15   10Mg1d+1      10Mg1d+2      11Mg1s        11Mg2s        11Mg3s        11Mg4s        11Mg1pz       11Mg1py       11Mg1px       11Mg2pz    
   16   11Mg2py       11Mg2px       11Mg3pz       11Mg3py       11Mg3px       11Mg1d-2      11Mg1d-1      11Mg1d0       11Mg1d+1      11Mg1d+2   
   17   12Mg1s        12Mg2s        12Mg3s        12Mg4s        12Mg1pz       12Mg1py       12Mg1px       12Mg2pz       12Mg2py       12Mg2px    
   18   12Mg3pz       12Mg3py       12Mg3px       12Mg1d-2      12Mg1d-1      12Mg1d0       12Mg1d+1      12Mg1d+2      13Mg1s        13Mg2s     
   19   13Mg3s        13Mg4s        13Mg1pz       13Mg1py       13Mg1px       13Mg2pz       13Mg2py       13Mg2px       13Mg3pz       13Mg3py    
   20   13Mg3px       13Mg1d-2      13Mg1d-1      13Mg1d0       13Mg1d+1      13Mg1d+2      14Mg1s        14Mg2s        14Mg3s        14Mg4s     
   21   14Mg1pz       14Mg1py       14Mg1px       14Mg2pz       14Mg2py       14Mg2px       14Mg3pz       14Mg3py       14Mg3px       14Mg1d-2   
   22   14Mg1d-1      14Mg1d0       14Mg1d+1      14Mg1d+2      15Mg1s        15Mg2s        15Mg3s        15Mg4s        15Mg1pz       15Mg1py    
   23   15Mg1px       15Mg2pz       15Mg2py       15Mg2px       15Mg3pz       15Mg3py       15Mg3px       15Mg1d-2      15Mg1d-1      15Mg1d0    
   24   15Mg1d+1      15Mg1d+2      16Mg1s        16Mg2s        16Mg3s        16Mg4s        16Mg1pz       16Mg1py       16Mg1px       16Mg2pz    
   25   16Mg2py       16Mg2px       16Mg3pz       16Mg3py       16Mg3px       16Mg1d-2      16Mg1d-1      16Mg1d0       16Mg1d+1      16Mg1d+2   
   26   17O1s         17O2s         17O3s         17O1pz        17O1py        17O1px        17O2pz        17O2py        17O2px        17O1d-2    
   27   17O1d-1       17O1d0        17O1d+1       17O1d+2       18O1s         18O2s         18O3s         18O1pz        18O1py        18O1px     
   28   18O2pz        18O2py        18O2px        18O1d-2       18O1d-1       18O1d0        18O1d+1       18O1d+2       19O1s         19O2s      
   29   19O3s         19O1pz        19O1py        19O1px        19O2pz        19O2py        19O2px        19O1d-2       19O1d-1       19O1d0     
   30   19O1d+1       19O1d+2       20O1s         20O2s         20O3s         20O1pz        20O1py        20O1px        20O2pz        20O2py     
   31   20O2px        20O1d-2       20O1d-1       20O1d0        20O1d+1       20O1d+2    
 
 Maximum number of basis functions per shell:   50
 Total number of basis functions:    316
 
 
 Calculation of prescreening integrals...
 CPU time [min]:     9.065                   Wall time [min]:     0.261
 
 Calculation of two-center Coulomb integrals...
   1% done.
  12% done.
  23% done.
  34% done.
  45% done.
  57% done.
  70% done.
  82% done.
  93% done.
 100% done.
 CPU time [min]:     9.127                   Wall time [min]:     0.263
 
 Cholesky decomposition of the inverse of the two-center matrix...
 CPU time [min]:     9.300                   Wall time [min]:     0.268
 
 Calculation of three-center Coulomb integrals...
   1% done.
  12% done.
  23% done.
  34% done.
  46% done.
  57% done.
  68% done.
  81% done.
  92% done.
 100% done.
 CPU time [min]:    23.729                   Wall time [min]:     0.676

 ************************ 2023-04-25 23:56:07 *************************
 Executing drpa...

 Three-index integral transformation and DF-MP2 calculation
 
 Allocation of 200.0 Gbytes of memory...
 Minimal memory requirement for (ai|P) integrals:      215.3 MB

 Calculating (ai|P) integrals...
 Number of integral batches:    1
 Occupied indices per batch:    5
 
 Transforming integrals of batch 1...
 CPU time [min]:    13.605                   Wall time [min]:     0.433
 
 
 
 Reference energy [au]:                      -112.778720244859
 DF-MP2 singlet pair energy [au]:              -0.272466761760
 DF-MP2 triplet pair energy [au]:              -0.092169330457
 DF-SCS-MP2 correlation energy [au]:           -0.357683224265
 DF-SCS-MP2 energy [au]:                     -113.136403469124
 DF-SOS-MP2 correlation energy [au]:           -0.354206790288
 DF-SOS-MP2 energy [au]:                     -113.132927035148
 DF-MP2 correlation energy [au]:               -0.364636092217
 DF-MP2 energy [au]:                         -113.143356337077
 
 ************************ 2023-04-25 23:56:34 *************************
                      Normal termination of mrcc.
 **********************************************************************
