 **********************************************************************
                          MRCC program system
 **********************************************************************
 
                              Written by
     Mihaly Kallay, Peter R. Nagy, David Mester, Laszlo Gyevi-Nagy,
        Jozsef Csoka, P. Bernat Szabo, Zoltan Rolik, Gyula Samu,
     Jozsef Csontos, Bence Hegely, Adam Ganyecz, Istvan Ladjanszki,
       Lorant Szegedy, Bence Ladoczki, Klara Petrov, Mate Farkas,
                    Pal D. Mezei, and Reka A. Horvath
 
        Department of Physical Chemistry and Materials Science
            Budapest University of Technology and Economics
                  Budapest P.O.Box 91, H-1521 Hungary
 
                              www.mrcc.hu
 
                      Release date: March 18, 2022

 ************************ 2022-11-14 10:46:23 *************************
 Executing minp...

 Reading input from MINP...
 
 Input file:
 
calc=LNO-CCSD(T)
scftype=rhf
verbosity=3
mem=150GB
symm=off
unit=angs
scfiguess=small
scfmaxit=1000
scfalg=locfit1


lcorthr=tight
bpedo=0.99999
ccmaxit=400
usedisk=0
ccsdalg=dfdirect
ccsdthreads=4
ccsdmkl=thr
ptthreads=4

charge=0
core=2

basis=special
aug-cc-pVDZ
aug-cc-pVDZ
bse_CVDZ
aug-cc-pVDZ
aug-cc-pVDZ
aug-cc-pVDZ
aug-cc-pVDZ
aug-cc-pVDZ
bse_CVDZ
bse_CVDZ
bse_CVDZ
bse_CVDZ
aug-cc-pVDZ
aug-cc-pVDZ
aug-cc-pVDZ
aug-cc-pVDZ
bse_CVDZ
bse_CVDZ
bse_CVDZ
bse_CVDZ
aug-cc-pVDZ
aug-cc-pVDZ
aug-cc-pVDZ
aug-cc-pVDZ
aug-cc-pVDZ
aug-cc-pVDZ
aug-cc-pVDZ
aug-cc-pVDZ
aug-cc-pVDZ
aug-cc-pVDZ
aug-cc-pVDZ
aug-cc-pVDZ
aug-cc-pVDZ
aug-cc-pVDZ
aug-cc-pVDZ
aug-cc-pVDZ

basis_sm=special
def2-SVP
def2-SVP
def2-SVP
def2-SVP
def2-SVP
def2-SVP
def2-SVP
def2-SVP
def2-SVP
def2-SVP
def2-SVP
def2-SVP
def2-SVP
def2-SVP
def2-SVP
def2-SVP
def2-SVP
def2-SVP
def2-SVP
def2-SVP
def2-SVP
def2-SVP
def2-SVP
def2-SVP
def2-SVP
def2-SVP
def2-SVP
def2-SVP
def2-SVP
def2-SVP
def2-SVP
def2-SVP
def2-SVP
def2-SVP
def2-SVP
def2-SVP

dfbasis_scf=special
def2-QZVPP-RI-JK
def2-QZVPP-RI-JK
def2-QZVPP-RI-JK
def2-QZVPP-RI-JK
def2-QZVPP-RI-JK
def2-QZVPP-RI-JK
def2-QZVPP-RI-JK
def2-QZVPP-RI-JK
def2-QZVPP-RI-JK
def2-QZVPP-RI-JK
def2-QZVPP-RI-JK
def2-QZVPP-RI-JK
def2-QZVPP-RI-JK
def2-QZVPP-RI-JK
def2-QZVPP-RI-JK
def2-QZVPP-RI-JK
def2-QZVPP-RI-JK
def2-QZVPP-RI-JK
def2-QZVPP-RI-JK
def2-QZVPP-RI-JK
def2-QZVPP-RI-JK
def2-QZVPP-RI-JK
def2-QZVPP-RI-JK
def2-QZVPP-RI-JK
def2-QZVPP-RI-JK
def2-QZVPP-RI-JK
def2-QZVPP-RI-JK
def2-QZVPP-RI-JK
def2-QZVPP-RI-JK
def2-QZVPP-RI-JK
def2-QZVPP-RI-JK
def2-QZVPP-RI-JK
def2-QZVPP-RI-JK
def2-QZVPP-RI-JK
def2-QZVPP-RI-JK
def2-QZVPP-RI-JK

dfbasis_cor=special
aug-cc-pVDZ-RI
aug-cc-pVDZ-RI
bse_CVDZ_mp2fit
aug-cc-pVDZ-RI
aug-cc-pVDZ-RI
aug-cc-pVDZ-RI
aug-cc-pVDZ-RI
aug-cc-pVDZ-RI
bse_CVDZ_mp2fit
bse_CVDZ_mp2fit
bse_CVDZ_mp2fit
bse_CVDZ_mp2fit
aug-cc-pVDZ-RI
aug-cc-pVDZ-RI
aug-cc-pVDZ-RI
aug-cc-pVDZ-RI
bse_CVDZ_mp2fit
bse_CVDZ_mp2fit
bse_CVDZ_mp2fit
bse_CVDZ_mp2fit
aug-cc-pVDZ-RI
aug-cc-pVDZ-RI
aug-cc-pVDZ-RI
aug-cc-pVDZ-RI
aug-cc-pVDZ-RI
aug-cc-pVDZ-RI
aug-cc-pVDZ-RI
aug-cc-pVDZ-RI
aug-cc-pVDZ-RI
aug-cc-pVDZ-RI
aug-cc-pVDZ-RI
aug-cc-pVDZ-RI
aug-cc-pVDZ-RI
aug-cc-pVDZ-RI
aug-cc-pVDZ-RI
aug-cc-pVDZ-RI

ecp=special
none
none
none
none
none
none
none
none
none
none
none
none
none
none
none
none
none
none
none
none
none
none
none
none
none
none
none
none
none
none
none
none
none
none
none
none

unit=angs
geom=xyz
36
C1 O1 Mg9 O25 ECP69
C     0.00000000000    0.00000000000    2.43329433571
O     0.00000000000    0.00000000000    3.58011415037
Mg    0.00000000000    0.00000000000   -0.00772802266
O    -2.12018425659    0.00000000000   -0.00205593177
O     0.00000000000    2.12018425659   -0.00205593177
O     2.12018425659    0.00000000000   -0.00205593177
O     0.00000000000   -2.12018425659   -0.00205593177
O     0.00000000000    0.00000000000   -2.14902768389
Mg   -2.11144262254    2.11144262254   -0.05140086690
Mg    2.11144262254    2.11144262254   -0.05140086690
Mg    2.11144262254   -2.11144262254   -0.05140086690
Mg   -2.11144262254   -2.11144262254   -0.05140086690
O    -2.11070451449    2.11070451449   -2.15696791928
O     2.11070451449    2.11070451449   -2.15696791928
O     2.11070451449   -2.11070451449   -2.15696791928
O    -2.11070451449   -2.11070451449   -2.15696791928
Mg   -4.22049352791    0.00000000000   -0.05042534122
Mg    0.00000000000    4.22049352791   -0.05042534122
Mg    4.22049352791    0.00000000000   -0.05042534122
Mg    0.00000000000   -4.22049352791   -0.05042534122
O    -4.22049352791    2.11209139723    0.00000000000
O    -2.11209139723    4.22049352791    0.00000000000
O     2.11209139723    4.22049352791    0.00000000000
O     4.22049352791    2.11209139723    0.00000000000
O     4.22049352791   -2.11209139723    0.00000000000
O     2.11209139723   -4.22049352791    0.00000000000
O    -2.11209139723   -4.22049352791    0.00000000000
O    -4.22049352791   -2.11209139723    0.00000000000
O    -4.22049352791    0.00000000000   -2.15902521756
O     0.00000000000    4.22049352791   -2.15902521756
O     4.22049352791    0.00000000000   -2.15902521756
O     0.00000000000   -4.22049352791   -2.15902521756
O    -6.32080279923    0.00000000000   -0.00205593177
O     0.00000000000    6.32080279923   -0.00205593177
O     6.32080279923    0.00000000000   -0.00205593177
O     0.00000000000   -6.32080279923   -0.00205593177

ghost=serialno
3-36

 
 
 Checking keyword combinations...
 
 Keywords:
 
 active=none
 agrid=ld0006-ld0590
 agrid_pssp=ld0006-ld0194
 agrid_pssp_sm=ld0006-ld0074
 basis=special
 basis_sm=special
 basopt=off
 bfbasis=none
 bfgsmem=10
 bfgstol=1.0d-3
 bpcompo=0.985
 bpcompv=0.98
 bpdfo=0.985
 bpocc=0.99999
 bppdo=0.999d0
 bppdv=0.98
 bpedo=0.99999
 bpedv=0.995d0
 calc=ccsd(t)
 ccmaxit=400
 ccprog=ccsd
 ccsdalg=dfdirect
 ccsdmkl=thr
 ccsdrest=off
 ccsdthreads=4
 cctol=5
 charge=0
 cialg=direct
 ciguess=off
 cmpgrp=auto
 comprest=off
 core=2
 corembed=off
 csapprox=off
 cvs=off
 dboc=off
 delocsomofact=
 dendec=cholesky
 dens=0
 dfalg=lineq
 dfbasis_cab=none
 dfbasis_cor=special
 dfbasis_scf=special
 dfbasis_scf_sm=special
 dfintran=drpa
 dft=off
 dhexc=adc(2)
 diag=david
 docc=
 domrad=10.d0
 drpaalg=auto
 dual=off
 dual_df=off
 ecp=special
 edisp=off
 edisp_embed=off
 embed=off
 etemp=300
 epert=none
 eps=
 espcharge=off
 excrad=1.0
 excrad_fin=0.100000000D-02
 fitting=coulomb
 fmm=off
 fmmord=8
 freq=off
 gamma=1.d0
 gauss=spher
 geom=xyz
 gopt=off
 ghost=serialno
 gtol=7
 grdens=off
 gridbatch_cos=2000
 grtol=10
 guido_ct=off
 hamilton=dc
 iface=none
 intalg=auto
 itol=10
 laptol=1.d-3
 lccoporder=lccfirst
 lcorthr=tight
 lccrest=off
 lmp2dens=on
 lnoepso=3e-6
 lnoepsv=3e-7
 boysalg=jacobi
 localcc=2021
 localcorrsymm=off
 locintrf=direct
 mact=
 maxact=off
 maxdim=100
 maxex=0
 maxmicroit=100
 mcscfiguess=hf
 mem=150gb
 mmprog=
 molden=on
 mpitasks=1
 mulmet=3
 mult=
 nacto=0
 nactv=0
 naf_amp=1.d-2
 naf_cor=1e-2
 naf_scf=off
 nafalg=albe
 naftyp=jpq
 nchol=auto
 ndeps=1e-3
 nstate=1
 nsing=0
 nto=off
 ntrip=0
 occ=
 occri=off
 oniom=off
 oniom_eechg=off
 oniom_pcm=off
 oniom_qcorr=off
 optalg=
 optmaxit=50
 optetol=1e-6
 optex=0
 optgtol=1e-4
 optstol=1e-3
 orblocc=off
 orbloce=off
 orbloco=boys
 orblocv=pao
 orblocguess=cholesky
 osveps=-1.d0
 ovirt=off
 ovltol=1e-7
 ovosnorb=80.0
 pcm=off
 popul=off
 pressure=100000
 pssp=off
 ptfreq=0.0
 ptthreads=4
 qro=off
 qscf=off
 qmmm=off
 redcost_exc=off
 redcost_tddft=0.985d0
 refdet=none
 rest=0
 rgrid=log3
 rism=off
 rohfcore=standard
 rohftype=semicanonical
 scfalg=locfit1
 scf_conv=auto
 scfdamp=0.0d0
 scfdamp_mode=off
 scfdamp_end=1000
 scfdamp_dampstep=0.d0
 scfdamp_dtol=0.0d0
 scfdamp_maxfact=0.0d0
 scfdamp_minfact=0.0d0
 scfdiis=on
 scfdiis_dtol=0.0d0
 scfdiis_end=1000
 scfdiis_start=2
 scfdiis_step=1
 scfdiis_watch=off
 scfdiis_wrange=10
 scfdiis_wlimit=5
 scfdiis_delmax=2
 scfdtol=7
 scfext=10
 scfguessdens=
 scfiguess=small
 scfloc=pm
 scflshift=0.20
 scflshift_end=8
 scflshift_dtol=0.0
 scflshift_gaptol=0.20
 scfmaxit=1000
 scftype=rhf
 scftol=6
 scspe=1.d0
 scsph=1.d0
 scsps=1.2d0
 scsps_t=1.2d0
 scspt=0.33333333333333
 scspt_t=0.33333333333333
 scspv=1.d0
 spairtol=-1.d0
 sqmprog=
 subminp=top
 symm=0
 talg=lapl
 temp=298.15
 test=off
 theodore=off
 tlmo=0.999
 tpao=0.94
 tprint=off
 uncontract=off
 unit=angs
 usedisk=0
 verbosity=3
 wpairtol=3.d-6
 
 Calculating integrals for small-basis SCF...

 ************************ 2022-11-14 10:46:24 *************************
 Executing integ...

 Allocation of 150.0 Gbytes of memory...
 
 
 Number of atoms:                 36
 Charge:                           0
 Number of electrons:             14
 Number of core electrons:         4
 Spin multiplicity:                1
 
                 Cartesian coordinates [bohr]      Atomic mass [AMU]  Z
   1  C     0.00000000    0.00000000    4.59825988    12.000000       6
   2  O     0.00000000    0.00000000    6.76543524    15.994915       8
   3  Mg    0.00000000    0.00000000   -0.01460385     0.000000       0
   4  O    -4.00656758    0.00000000   -0.00388515     0.000000       0
   5  O     0.00000000    4.00656758   -0.00388515     0.000000       0
   6  O     4.00656758    0.00000000   -0.00388515     0.000000       0
   7  O     0.00000000   -4.00656758   -0.00388515     0.000000       0
   8  O     0.00000000    0.00000000   -4.06107376     0.000000       0
   9  Mg   -3.99004829    3.99004829   -0.09713356     0.000000       0
  10  Mg    3.99004829    3.99004829   -0.09713356     0.000000       0
  11  Mg    3.99004829   -3.99004829   -0.09713356     0.000000       0
  12  Mg   -3.99004829   -3.99004829   -0.09713356     0.000000       0
  13  O    -3.98865346    3.98865346   -4.07607863     0.000000       0
  14  O     3.98865346    3.98865346   -4.07607863     0.000000       0
  15  O     3.98865346   -3.98865346   -4.07607863     0.000000       0
  16  O    -3.98865346   -3.98865346   -4.07607863     0.000000       0
  17  Mg   -7.97557688    0.00000000   -0.09529008     0.000000       0
  18  Mg    0.00000000    7.97557688   -0.09529008     0.000000       0
  19  Mg    7.97557688    0.00000000   -0.09529008     0.000000       0
  20  Mg    0.00000000   -7.97557688   -0.09529008     0.000000       0
  21  O    -7.97557688    3.99127429    0.00000000     0.000000       0
  22  O    -3.99127429    7.97557688    0.00000000     0.000000       0
  23  O     3.99127429    7.97557688    0.00000000     0.000000       0
  24  O     7.97557688    3.99127429    0.00000000     0.000000       0
  25  O     7.97557688   -3.99127429    0.00000000     0.000000       0
  26  O     3.99127429   -7.97557688    0.00000000     0.000000       0
  27  O    -3.99127429   -7.97557688    0.00000000     0.000000       0
  28  O    -7.97557688   -3.99127429    0.00000000     0.000000       0
  29  O    -7.97557688    0.00000000   -4.07996636     0.000000       0
  30  O     0.00000000    7.97557688   -4.07996636     0.000000       0
  31  O     7.97557688    0.00000000   -4.07996636     0.000000       0
  32  O     0.00000000   -7.97557688   -4.07996636     0.000000       0
  33  O   -11.94458618    0.00000000   -0.00388515     0.000000       0
  34  O     0.00000000   11.94458618   -0.00388515     0.000000       0
  35  O    11.94458618    0.00000000   -0.00388515     0.000000       0
  36  O     0.00000000  -11.94458618   -0.00388515     0.000000       0
 
 This molecule is an oblate symmetric top.
 
 Point group: C4v 
 Computational point group: C1  
 
 Cartesian coordinates in standard orientation [bohr]
   1  C     0.00000000    0.00000000    3.45072703
   2  O     0.00000000    0.00000000    5.61790240
   3  Mg    0.00000000    0.00000000   -1.16213669
   4  O     4.00656758   -0.00000000   -1.15141799
   5  O    -0.00000000   -4.00656758   -1.15141799
   6  O    -4.00656758    0.00000000   -1.15141799
   7  O     0.00000000    4.00656758   -1.15141799
   8  O     0.00000000    0.00000000   -5.20860661
   9  Mg    3.99004829   -3.99004829   -1.24466641
  10  Mg   -3.99004829   -3.99004829   -1.24466641
  11  Mg   -3.99004829    3.99004829   -1.24466641
  12  Mg    3.99004829    3.99004829   -1.24466641
  13  O     3.98865346   -3.98865346   -5.22361148
  14  O    -3.98865346   -3.98865346   -5.22361148
  15  O    -3.98865346    3.98865346   -5.22361148
  16  O     3.98865346    3.98865346   -5.22361148
  17  Mg    7.97557688   -0.00000000   -1.24282293
  18  Mg   -0.00000000   -7.97557688   -1.24282293
  19  Mg   -7.97557688    0.00000000   -1.24282293
  20  Mg    0.00000000    7.97557688   -1.24282293
  21  O     7.97557688   -3.99127429   -1.14753285
  22  O     3.99127429   -7.97557688   -1.14753285
  23  O    -3.99127429   -7.97557688   -1.14753285
  24  O    -7.97557688   -3.99127429   -1.14753285
  25  O    -7.97557688    3.99127429   -1.14753285
  26  O    -3.99127429    7.97557688   -1.14753285
  27  O     3.99127429    7.97557688   -1.14753285
  28  O     7.97557688    3.99127429   -1.14753285
  29  O     7.97557688   -0.00000000   -5.22749921
  30  O    -0.00000000   -7.97557688   -5.22749921
  31  O    -7.97557688    0.00000000   -5.22749921
  32  O     0.00000000    7.97557688   -5.22749921
  33  O    11.94458618   -0.00000000   -1.15141799
  34  O    -0.00000000  -11.94458618   -1.15141799
  35  O   -11.94458618    0.00000000   -1.15141799
  36  O     0.00000000   11.94458618   -1.15141799
 
 Nuclear repulsion energy [au]:         22.148646010002
 
 
 Basis set information:
 
 Maximum angular momentum: g
 Maximum number of contracted Gaussians:   13
 Maximum number of primitive Gaussians:    16
 Spherical harmonic GTOs are used.
 
 
 Conventional basis set:
 
   1  C  def2-svp [ 7s 4p 1d | 3s 2p 1d ]
   2  O  def2-svp [ 7s 4p 1d | 3s 2p 1d ]
   3  Mg def2-svp [ 10s 7p 1d | 4s 3p 1d ]
   4  O  def2-svp [ 7s 4p 1d | 3s 2p 1d ]
   5  O  def2-svp [ 7s 4p 1d | 3s 2p 1d ]
   6  O  def2-svp [ 7s 4p 1d | 3s 2p 1d ]
   7  O  def2-svp [ 7s 4p 1d | 3s 2p 1d ]
   8  O  def2-svp [ 7s 4p 1d | 3s 2p 1d ]
   9  Mg def2-svp [ 10s 7p 1d | 4s 3p 1d ]
  10  Mg def2-svp [ 10s 7p 1d | 4s 3p 1d ]
  11  Mg def2-svp [ 10s 7p 1d | 4s 3p 1d ]
  12  Mg def2-svp [ 10s 7p 1d | 4s 3p 1d ]
  13  O  def2-svp [ 7s 4p 1d | 3s 2p 1d ]
  14  O  def2-svp [ 7s 4p 1d | 3s 2p 1d ]
  15  O  def2-svp [ 7s 4p 1d | 3s 2p 1d ]
  16  O  def2-svp [ 7s 4p 1d | 3s 2p 1d ]
  17  Mg def2-svp [ 10s 7p 1d | 4s 3p 1d ]
  18  Mg def2-svp [ 10s 7p 1d | 4s 3p 1d ]
  19  Mg def2-svp [ 10s 7p 1d | 4s 3p 1d ]
  20  Mg def2-svp [ 10s 7p 1d | 4s 3p 1d ]
  21  O  def2-svp [ 7s 4p 1d | 3s 2p 1d ]
  22  O  def2-svp [ 7s 4p 1d | 3s 2p 1d ]
  23  O  def2-svp [ 7s 4p 1d | 3s 2p 1d ]
  24  O  def2-svp [ 7s 4p 1d | 3s 2p 1d ]
  25  O  def2-svp [ 7s 4p 1d | 3s 2p 1d ]
  26  O  def2-svp [ 7s 4p 1d | 3s 2p 1d ]
  27  O  def2-svp [ 7s 4p 1d | 3s 2p 1d ]
  28  O  def2-svp [ 7s 4p 1d | 3s 2p 1d ]
  29  O  def2-svp [ 7s 4p 1d | 3s 2p 1d ]
  30  O  def2-svp [ 7s 4p 1d | 3s 2p 1d ]
  31  O  def2-svp [ 7s 4p 1d | 3s 2p 1d ]
  32  O  def2-svp [ 7s 4p 1d | 3s 2p 1d ]
  33  O  def2-svp [ 7s 4p 1d | 3s 2p 1d ]
  34  O  def2-svp [ 7s 4p 1d | 3s 2p 1d ]
  35  O  def2-svp [ 7s 4p 1d | 3s 2p 1d ]
  36  O  def2-svp [ 7s 4p 1d | 3s 2p 1d ]
 
 Basis functions:
            1             2             3             4             5             6             7             8             9            10
    0    1C1s          1C2s          1C3s          1C1pz         1C1py         1C1px         1C2pz         1C2py         1C2px         1C1d-2    
    1    1C1d-1        1C1d0         1C1d+1        1C1d+2        2O1s          2O2s          2O3s          2O1pz         2O1py         2O1px     
    2    2O2pz         2O2py         2O2px         2O1d-2        2O1d-1        2O1d0         2O1d+1        2O1d+2        3Mg1s         3Mg2s     
    3    3Mg3s         3Mg4s         3Mg1pz        3Mg1py        3Mg1px        3Mg2pz        3Mg2py        3Mg2px        3Mg3pz        3Mg3py    
    4    3Mg3px        3Mg1d-2       3Mg1d-1       3Mg1d0        3Mg1d+1       3Mg1d+2       4O1s          4O2s          4O3s          4O1pz     
    5    4O1py         4O1px         4O2pz         4O2py         4O2px         4O1d-2        4O1d-1        4O1d0         4O1d+1        4O1d+2    
    6    5O1s          5O2s          5O3s          5O1pz         5O1py         5O1px         5O2pz         5O2py         5O2px         5O1d-2    
    7    5O1d-1        5O1d0         5O1d+1        5O1d+2        6O1s          6O2s          6O3s          6O1pz         6O1py         6O1px     
    8    6O2pz         6O2py         6O2px         6O1d-2        6O1d-1        6O1d0         6O1d+1        6O1d+2        7O1s          7O2s      
    9    7O3s          7O1pz         7O1py         7O1px         7O2pz         7O2py         7O2px         7O1d-2        7O1d-1        7O1d0     
   10    7O1d+1        7O1d+2        8O1s          8O2s          8O3s          8O1pz         8O1py         8O1px         8O2pz         8O2py     
   11    8O2px         8O1d-2        8O1d-1        8O1d0         8O1d+1        8O1d+2        9Mg1s         9Mg2s         9Mg3s         9Mg4s     
   12    9Mg1pz        9Mg1py        9Mg1px        9Mg2pz        9Mg2py        9Mg2px        9Mg3pz        9Mg3py        9Mg3px        9Mg1d-2   
   13    9Mg1d-1       9Mg1d0        9Mg1d+1       9Mg1d+2      10Mg1s        10Mg2s        10Mg3s        10Mg4s        10Mg1pz       10Mg1py    
   14   10Mg1px       10Mg2pz       10Mg2py       10Mg2px       10Mg3pz       10Mg3py       10Mg3px       10Mg1d-2      10Mg1d-1      10Mg1d0    
   15   10Mg1d+1      10Mg1d+2      11Mg1s        11Mg2s        11Mg3s        11Mg4s        11Mg1pz       11Mg1py       11Mg1px       11Mg2pz    
   16   11Mg2py       11Mg2px       11Mg3pz       11Mg3py       11Mg3px       11Mg1d-2      11Mg1d-1      11Mg1d0       11Mg1d+1      11Mg1d+2   
   17   12Mg1s        12Mg2s        12Mg3s        12Mg4s        12Mg1pz       12Mg1py       12Mg1px       12Mg2pz       12Mg2py       12Mg2px    
   18   12Mg3pz       12Mg3py       12Mg3px       12Mg1d-2      12Mg1d-1      12Mg1d0       12Mg1d+1      12Mg1d+2      13O1s         13O2s      
   19   13O3s         13O1pz        13O1py        13O1px        13O2pz        13O2py        13O2px        13O1d-2       13O1d-1       13O1d0     
   20   13O1d+1       13O1d+2       14O1s         14O2s         14O3s         14O1pz        14O1py        14O1px        14O2pz        14O2py     
   21   14O2px        14O1d-2       14O1d-1       14O1d0        14O1d+1       14O1d+2       15O1s         15O2s         15O3s         15O1pz     
   22   15O1py        15O1px        15O2pz        15O2py        15O2px        15O1d-2       15O1d-1       15O1d0        15O1d+1       15O1d+2    
   23   16O1s         16O2s         16O3s         16O1pz        16O1py        16O1px        16O2pz        16O2py        16O2px        16O1d-2    
   24   16O1d-1       16O1d0        16O1d+1       16O1d+2       17Mg1s        17Mg2s        17Mg3s        17Mg4s        17Mg1pz       17Mg1py    
   25   17Mg1px       17Mg2pz       17Mg2py       17Mg2px       17Mg3pz       17Mg3py       17Mg3px       17Mg1d-2      17Mg1d-1      17Mg1d0    
   26   17Mg1d+1      17Mg1d+2      18Mg1s        18Mg2s        18Mg3s        18Mg4s        18Mg1pz       18Mg1py       18Mg1px       18Mg2pz    
   27   18Mg2py       18Mg2px       18Mg3pz       18Mg3py       18Mg3px       18Mg1d-2      18Mg1d-1      18Mg1d0       18Mg1d+1      18Mg1d+2   
   28   19Mg1s        19Mg2s        19Mg3s        19Mg4s        19Mg1pz       19Mg1py       19Mg1px       19Mg2pz       19Mg2py       19Mg2px    
   29   19Mg3pz       19Mg3py       19Mg3px       19Mg1d-2      19Mg1d-1      19Mg1d0       19Mg1d+1      19Mg1d+2      20Mg1s        20Mg2s     
   30   20Mg3s        20Mg4s        20Mg1pz       20Mg1py       20Mg1px       20Mg2pz       20Mg2py       20Mg2px       20Mg3pz       20Mg3py    
   31   20Mg3px       20Mg1d-2      20Mg1d-1      20Mg1d0       20Mg1d+1      20Mg1d+2      21O1s         21O2s         21O3s         21O1pz     
   32   21O1py        21O1px        21O2pz        21O2py        21O2px        21O1d-2       21O1d-1       21O1d0        21O1d+1       21O1d+2    
   33   22O1s         22O2s         22O3s         22O1pz        22O1py        22O1px        22O2pz        22O2py        22O2px        22O1d-2    
   34   22O1d-1       22O1d0        22O1d+1       22O1d+2       23O1s         23O2s         23O3s         23O1pz        23O1py        23O1px     
   35   23O2pz        23O2py        23O2px        23O1d-2       23O1d-1       23O1d0        23O1d+1       23O1d+2       24O1s         24O2s      
   36   24O3s         24O1pz        24O1py        24O1px        24O2pz        24O2py        24O2px        24O1d-2       24O1d-1       24O1d0     
   37   24O1d+1       24O1d+2       25O1s         25O2s         25O3s         25O1pz        25O1py        25O1px        25O2pz        25O2py     
   38   25O2px        25O1d-2       25O1d-1       25O1d0        25O1d+1       25O1d+2       26O1s         26O2s         26O3s         26O1pz     
   39   26O1py        26O1px        26O2pz        26O2py        26O2px        26O1d-2       26O1d-1       26O1d0        26O1d+1       26O1d+2    
   40   27O1s         27O2s         27O3s         27O1pz        27O1py        27O1px        27O2pz        27O2py        27O2px        27O1d-2    
   41   27O1d-1       27O1d0        27O1d+1       27O1d+2       28O1s         28O2s         28O3s         28O1pz        28O1py        28O1px     
   42   28O2pz        28O2py        28O2px        28O1d-2       28O1d-1       28O1d0        28O1d+1       28O1d+2       29O1s         29O2s      
   43   29O3s         29O1pz        29O1py        29O1px        29O2pz        29O2py        29O2px        29O1d-2       29O1d-1       29O1d0     
   44   29O1d+1       29O1d+2       30O1s         30O2s         30O3s         30O1pz        30O1py        30O1px        30O2pz        30O2py     
   45   30O2px        30O1d-2       30O1d-1       30O1d0        30O1d+1       30O1d+2       31O1s         31O2s         31O3s         31O1pz     
   46   31O1py        31O1px        31O2pz        31O2py        31O2px        31O1d-2       31O1d-1       31O1d0        31O1d+1       31O1d+2    
   47   32O1s         32O2s         32O3s         32O1pz        32O1py        32O1px        32O2pz        32O2py        32O2px        32O1d-2    
   48   32O1d-1       32O1d0        32O1d+1       32O1d+2       33O1s         33O2s         33O3s         33O1pz        33O1py        33O1px     
   49   33O2pz        33O2py        33O2px        33O1d-2       33O1d-1       33O1d0        33O1d+1       33O1d+2       34O1s         34O2s      
   50   34O3s         34O1pz        34O1py        34O1px        34O2pz        34O2py        34O2px        34O1d-2       34O1d-1       34O1d0     
   51   34O1d+1       34O1d+2       35O1s         35O2s         35O3s         35O1pz        35O1py        35O1px        35O2pz        35O2py     
   52   35O2px        35O1d-2       35O1d-1       35O1d0        35O1d+1       35O1d+2       36O1s         36O2s         36O3s         36O1pz     
   53   36O1py        36O1px        36O2pz        36O2py        36O2px        36O1d-2       36O1d-1       36O1d0        36O1d+1       36O1d+2    
 
 Maximum number of basis functions per shell:    9
 Total number of basis functions:    540
 
 
 Fitting basis set for the SCF calculation:
 
   1  C  def2-qzvpp-ri-jk [ 14s 10p 6d 2f 1g | 10s 8p 5d 1f 1g ]
   2  O  def2-qzvpp-ri-jk [ 14s 10p 6d 2f 1g | 10s 8p 4d 2f 1g ]
   3  Mg def2-qzvpp-ri-jk [ 16s 12p 9d 4f 1g | 13s 9p 7d 4f 1g ]
   4  O  def2-qzvpp-ri-jk [ 14s 10p 6d 2f 1g | 10s 8p 4d 2f 1g ]
   5  O  def2-qzvpp-ri-jk [ 14s 10p 6d 2f 1g | 10s 8p 4d 2f 1g ]
   6  O  def2-qzvpp-ri-jk [ 14s 10p 6d 2f 1g | 10s 8p 4d 2f 1g ]
   7  O  def2-qzvpp-ri-jk [ 14s 10p 6d 2f 1g | 10s 8p 4d 2f 1g ]
   8  O  def2-qzvpp-ri-jk [ 14s 10p 6d 2f 1g | 10s 8p 4d 2f 1g ]
   9  Mg def2-qzvpp-ri-jk [ 16s 12p 9d 4f 1g | 13s 9p 7d 4f 1g ]
  10  Mg def2-qzvpp-ri-jk [ 16s 12p 9d 4f 1g | 13s 9p 7d 4f 1g ]
  11  Mg def2-qzvpp-ri-jk [ 16s 12p 9d 4f 1g | 13s 9p 7d 4f 1g ]
  12  Mg def2-qzvpp-ri-jk [ 16s 12p 9d 4f 1g | 13s 9p 7d 4f 1g ]
  13  O  def2-qzvpp-ri-jk [ 14s 10p 6d 2f 1g | 10s 8p 4d 2f 1g ]
  14  O  def2-qzvpp-ri-jk [ 14s 10p 6d 2f 1g | 10s 8p 4d 2f 1g ]
  15  O  def2-qzvpp-ri-jk [ 14s 10p 6d 2f 1g | 10s 8p 4d 2f 1g ]
  16  O  def2-qzvpp-ri-jk [ 14s 10p 6d 2f 1g | 10s 8p 4d 2f 1g ]
  17  Mg def2-qzvpp-ri-jk [ 16s 12p 9d 4f 1g | 13s 9p 7d 4f 1g ]
  18  Mg def2-qzvpp-ri-jk [ 16s 12p 9d 4f 1g | 13s 9p 7d 4f 1g ]
  19  Mg def2-qzvpp-ri-jk [ 16s 12p 9d 4f 1g | 13s 9p 7d 4f 1g ]
  20  Mg def2-qzvpp-ri-jk [ 16s 12p 9d 4f 1g | 13s 9p 7d 4f 1g ]
  21  O  def2-qzvpp-ri-jk [ 14s 10p 6d 2f 1g | 10s 8p 4d 2f 1g ]
  22  O  def2-qzvpp-ri-jk [ 14s 10p 6d 2f 1g | 10s 8p 4d 2f 1g ]
  23  O  def2-qzvpp-ri-jk [ 14s 10p 6d 2f 1g | 10s 8p 4d 2f 1g ]
  24  O  def2-qzvpp-ri-jk [ 14s 10p 6d 2f 1g | 10s 8p 4d 2f 1g ]
  25  O  def2-qzvpp-ri-jk [ 14s 10p 6d 2f 1g | 10s 8p 4d 2f 1g ]
  26  O  def2-qzvpp-ri-jk [ 14s 10p 6d 2f 1g | 10s 8p 4d 2f 1g ]
  27  O  def2-qzvpp-ri-jk [ 14s 10p 6d 2f 1g | 10s 8p 4d 2f 1g ]
  28  O  def2-qzvpp-ri-jk [ 14s 10p 6d 2f 1g | 10s 8p 4d 2f 1g ]
  29  O  def2-qzvpp-ri-jk [ 14s 10p 6d 2f 1g | 10s 8p 4d 2f 1g ]
  30  O  def2-qzvpp-ri-jk [ 14s 10p 6d 2f 1g | 10s 8p 4d 2f 1g ]
  31  O  def2-qzvpp-ri-jk [ 14s 10p 6d 2f 1g | 10s 8p 4d 2f 1g ]
  32  O  def2-qzvpp-ri-jk [ 14s 10p 6d 2f 1g | 10s 8p 4d 2f 1g ]
  33  O  def2-qzvpp-ri-jk [ 14s 10p 6d 2f 1g | 10s 8p 4d 2f 1g ]
  34  O  def2-qzvpp-ri-jk [ 14s 10p 6d 2f 1g | 10s 8p 4d 2f 1g ]
  35  O  def2-qzvpp-ri-jk [ 14s 10p 6d 2f 1g | 10s 8p 4d 2f 1g ]
  36  O  def2-qzvpp-ri-jk [ 14s 10p 6d 2f 1g | 10s 8p 4d 2f 1g ]
 
 Basis functions:
            1             2             3             4             5             6             7             8             9            10
    0    1C1s          1C2s          1C3s          1C4s          1C5s          1C6s          1C7s          1C8s          1C9s          1C10s     
    1    1C1pz         1C1py         1C1px         1C2pz         1C2py         1C2px         1C3pz         1C3py         1C3px         1C4pz     
    2    1C4py         1C4px         1C5pz         1C5py         1C5px         1C6pz         1C6py         1C6px         1C7pz         1C7py     
    3    1C7px         1C8pz         1C8py         1C8px         1C1d-2        1C1d-1        1C1d0         1C1d+1        1C1d+2        1C2d-2    
    4    1C2d-1        1C2d0         1C2d+1        1C2d+2        1C3d-2        1C3d-1        1C3d0         1C3d+1        1C3d+2        1C4d-2    
    5    1C4d-1        1C4d0         1C4d+1        1C4d+2        1C5d-2        1C5d-1        1C5d0         1C5d+1        1C5d+2        1C1f-3    
    6    1C1f-2        1C1f-1        1C1f0         1C1f+1        1C1f+2        1C1f+3        1C1g-4        1C1g-3        1C1g-2        1C1g-1    
    7    1C1g0         1C1g+1        1C1g+2        1C1g+3        1C1g+4        2O1s          2O2s          2O3s          2O4s          2O5s      
    8    2O6s          2O7s          2O8s          2O9s          2O10s         2O1pz         2O1py         2O1px         2O2pz         2O2py     
    9    2O2px         2O3pz         2O3py         2O3px         2O4pz         2O4py         2O4px         2O5pz         2O5py         2O5px     
   10    2O6pz         2O6py         2O6px         2O7pz         2O7py         2O7px         2O8pz         2O8py         2O8px         2O1d-2    
   11    2O1d-1        2O1d0         2O1d+1        2O1d+2        2O2d-2        2O2d-1        2O2d0         2O2d+1        2O2d+2        2O3d-2    
   12    2O3d-1        2O3d0         2O3d+1        2O3d+2        2O4d-2        2O4d-1        2O4d0         2O4d+1        2O4d+2        2O1f-3    
   13    2O1f-2        2O1f-1        2O1f0         2O1f+1        2O1f+2        2O1f+3        2O2f-3        2O2f-2        2O2f-1        2O2f0     
   14    2O2f+1        2O2f+2        2O2f+3        2O1g-4        2O1g-3        2O1g-2        2O1g-1        2O1g0         2O1g+1        2O1g+2    
   15    2O1g+3        2O1g+4        3Mg1s         3Mg2s         3Mg3s         3Mg4s         3Mg5s         3Mg6s         3Mg7s         3Mg8s     
   16    3Mg9s         3Mg10s        3Mg11s        3Mg12s        3Mg13s        3Mg1pz        3Mg1py        3Mg1px        3Mg2pz        3Mg2py    
   17    3Mg2px        3Mg3pz        3Mg3py        3Mg3px        3Mg4pz        3Mg4py        3Mg4px        3Mg5pz        3Mg5py        3Mg5px    
   18    3Mg6pz        3Mg6py        3Mg6px        3Mg7pz        3Mg7py        3Mg7px        3Mg8pz        3Mg8py        3Mg8px        3Mg9pz    
   19    3Mg9py        3Mg9px        3Mg1d-2       3Mg1d-1       3Mg1d0        3Mg1d+1       3Mg1d+2       3Mg2d-2       3Mg2d-1       3Mg2d0    
   20    3Mg2d+1       3Mg2d+2       3Mg3d-2       3Mg3d-1       3Mg3d0        3Mg3d+1       3Mg3d+2       3Mg4d-2       3Mg4d-1       3Mg4d0    
   21    3Mg4d+1       3Mg4d+2       3Mg5d-2       3Mg5d-1       3Mg5d0        3Mg5d+1       3Mg5d+2       3Mg6d-2       3Mg6d-1       3Mg6d0    
   22    3Mg6d+1       3Mg6d+2       3Mg7d-2       3Mg7d-1       3Mg7d0        3Mg7d+1       3Mg7d+2       3Mg1f-3       3Mg1f-2       3Mg1f-1   
   23    3Mg1f0        3Mg1f+1       3Mg1f+2       3Mg1f+3       3Mg2f-3       3Mg2f-2       3Mg2f-1       3Mg2f0        3Mg2f+1       3Mg2f+2   
   24    3Mg2f+3       3Mg3f-3       3Mg3f-2       3Mg3f-1       3Mg3f0        3Mg3f+1       3Mg3f+2       3Mg3f+3       3Mg4f-3       3Mg4f-2   
   25    3Mg4f-1       3Mg4f0        3Mg4f+1       3Mg4f+2       3Mg4f+3       3Mg1g-4       3Mg1g-3       3Mg1g-2       3Mg1g-1       3Mg1g0    
   26    3Mg1g+1       3Mg1g+2       3Mg1g+3       3Mg1g+4       4O1s          4O2s          4O3s          4O4s          4O5s          4O6s      
   27    4O7s          4O8s          4O9s          4O10s         4O1pz         4O1py         4O1px         4O2pz         4O2py         4O2px     
   28    4O3pz         4O3py         4O3px         4O4pz         4O4py         4O4px         4O5pz         4O5py         4O5px         4O6pz     
   29    4O6py         4O6px         4O7pz         4O7py         4O7px         4O8pz         4O8py         4O8px         4O1d-2        4O1d-1    
   30    4O1d0         4O1d+1        4O1d+2        4O2d-2        4O2d-1        4O2d0         4O2d+1        4O2d+2        4O3d-2        4O3d-1    
   31    4O3d0         4O3d+1        4O3d+2        4O4d-2        4O4d-1        4O4d0         4O4d+1        4O4d+2        4O1f-3        4O1f-2    
   32    4O1f-1        4O1f0         4O1f+1        4O1f+2        4O1f+3        4O2f-3        4O2f-2        4O2f-1        4O2f0         4O2f+1    
   33    4O2f+2        4O2f+3        4O1g-4        4O1g-3        4O1g-2        4O1g-1        4O1g0         4O1g+1        4O1g+2        4O1g+3    
   34    4O1g+4        5O1s          5O2s          5O3s          5O4s          5O5s          5O6s          5O7s          5O8s          5O9s      
   35    5O10s         5O1pz         5O1py         5O1px         5O2pz         5O2py         5O2px         5O3pz         5O3py         5O3px     
   36    5O4pz         5O4py         5O4px         5O5pz         5O5py         5O5px         5O6pz         5O6py         5O6px         5O7pz     
   37    5O7py         5O7px         5O8pz         5O8py         5O8px         5O1d-2        5O1d-1        5O1d0         5O1d+1        5O1d+2    
   38    5O2d-2        5O2d-1        5O2d0         5O2d+1        5O2d+2        5O3d-2        5O3d-1        5O3d0         5O3d+1        5O3d+2    
   39    5O4d-2        5O4d-1        5O4d0         5O4d+1        5O4d+2        5O1f-3        5O1f-2        5O1f-1        5O1f0         5O1f+1    
   40    5O1f+2        5O1f+3        5O2f-3        5O2f-2        5O2f-1        5O2f0         5O2f+1        5O2f+2        5O2f+3        5O1g-4    
   41    5O1g-3        5O1g-2        5O1g-1        5O1g0         5O1g+1        5O1g+2        5O1g+3        5O1g+4        6O1s          6O2s      
   42    6O3s          6O4s          6O5s          6O6s          6O7s          6O8s          6O9s          6O10s         6O1pz         6O1py     
   43    6O1px         6O2pz         6O2py         6O2px         6O3pz         6O3py         6O3px         6O4pz         6O4py         6O4px     
   44    6O5pz         6O5py         6O5px         6O6pz         6O6py         6O6px         6O7pz         6O7py         6O7px         6O8pz     
   45    6O8py         6O8px         6O1d-2        6O1d-1        6O1d0         6O1d+1        6O1d+2        6O2d-2        6O2d-1        6O2d0     
   46    6O2d+1        6O2d+2        6O3d-2        6O3d-1        6O3d0         6O3d+1        6O3d+2        6O4d-2        6O4d-1        6O4d0     
   47    6O4d+1        6O4d+2        6O1f-3        6O1f-2        6O1f-1        6O1f0         6O1f+1        6O1f+2        6O1f+3        6O2f-3    
   48    6O2f-2        6O2f-1        6O2f0         6O2f+1        6O2f+2        6O2f+3        6O1g-4        6O1g-3        6O1g-2        6O1g-1    
   49    6O1g0         6O1g+1        6O1g+2        6O1g+3        6O1g+4        7O1s          7O2s          7O3s          7O4s          7O5s      
   50    7O6s          7O7s          7O8s          7O9s          7O10s         7O1pz         7O1py         7O1px         7O2pz         7O2py     
   51    7O2px         7O3pz         7O3py         7O3px         7O4pz         7O4py         7O4px         7O5pz         7O5py         7O5px     
   52    7O6pz         7O6py         7O6px         7O7pz         7O7py         7O7px         7O8pz         7O8py         7O8px         7O1d-2    
   53    7O1d-1        7O1d0         7O1d+1        7O1d+2        7O2d-2        7O2d-1        7O2d0         7O2d+1        7O2d+2        7O3d-2    
   54    7O3d-1        7O3d0         7O3d+1        7O3d+2        7O4d-2        7O4d-1        7O4d0         7O4d+1        7O4d+2        7O1f-3    
   55    7O1f-2        7O1f-1        7O1f0         7O1f+1        7O1f+2        7O1f+3        7O2f-3        7O2f-2        7O2f-1        7O2f0     
   56    7O2f+1        7O2f+2        7O2f+3        7O1g-4        7O1g-3        7O1g-2        7O1g-1        7O1g0         7O1g+1        7O1g+2    
   57    7O1g+3        7O1g+4        8O1s          8O2s          8O3s          8O4s          8O5s          8O6s          8O7s          8O8s      
   58    8O9s          8O10s         8O1pz         8O1py         8O1px         8O2pz         8O2py         8O2px         8O3pz         8O3py     
   59    8O3px         8O4pz         8O4py         8O4px         8O5pz         8O5py         8O5px         8O6pz         8O6py         8O6px     
   60    8O7pz         8O7py         8O7px         8O8pz         8O8py         8O8px         8O1d-2        8O1d-1        8O1d0         8O1d+1    
   61    8O1d+2        8O2d-2        8O2d-1        8O2d0         8O2d+1        8O2d+2        8O3d-2        8O3d-1        8O3d0         8O3d+1    
   62    8O3d+2        8O4d-2        8O4d-1        8O4d0         8O4d+1        8O4d+2        8O1f-3        8O1f-2        8O1f-1        8O1f0     
   63    8O1f+1        8O1f+2        8O1f+3        8O2f-3        8O2f-2        8O2f-1        8O2f0         8O2f+1        8O2f+2        8O2f+3    
   64    8O1g-4        8O1g-3        8O1g-2        8O1g-1        8O1g0         8O1g+1        8O1g+2        8O1g+3        8O1g+4        9Mg1s     
   65    9Mg2s         9Mg3s         9Mg4s         9Mg5s         9Mg6s         9Mg7s         9Mg8s         9Mg9s         9Mg10s        9Mg11s    
   66    9Mg12s        9Mg13s        9Mg1pz        9Mg1py        9Mg1px        9Mg2pz        9Mg2py        9Mg2px        9Mg3pz        9Mg3py    
   67    9Mg3px        9Mg4pz        9Mg4py        9Mg4px        9Mg5pz        9Mg5py        9Mg5px        9Mg6pz        9Mg6py        9Mg6px    
   68    9Mg7pz        9Mg7py        9Mg7px        9Mg8pz        9Mg8py        9Mg8px        9Mg9pz        9Mg9py        9Mg9px        9Mg1d-2   
   69    9Mg1d-1       9Mg1d0        9Mg1d+1       9Mg1d+2       9Mg2d-2       9Mg2d-1       9Mg2d0        9Mg2d+1       9Mg2d+2       9Mg3d-2   
   70    9Mg3d-1       9Mg3d0        9Mg3d+1       9Mg3d+2       9Mg4d-2       9Mg4d-1       9Mg4d0        9Mg4d+1       9Mg4d+2       9Mg5d-2   
   71    9Mg5d-1       9Mg5d0        9Mg5d+1       9Mg5d+2       9Mg6d-2       9Mg6d-1       9Mg6d0        9Mg6d+1       9Mg6d+2       9Mg7d-2   
   72    9Mg7d-1       9Mg7d0        9Mg7d+1       9Mg7d+2       9Mg1f-3       9Mg1f-2       9Mg1f-1       9Mg1f0        9Mg1f+1       9Mg1f+2   
   73    9Mg1f+3       9Mg2f-3       9Mg2f-2       9Mg2f-1       9Mg2f0        9Mg2f+1       9Mg2f+2       9Mg2f+3       9Mg3f-3       9Mg3f-2   
   74    9Mg3f-1       9Mg3f0        9Mg3f+1       9Mg3f+2       9Mg3f+3       9Mg4f-3       9Mg4f-2       9Mg4f-1       9Mg4f0        9Mg4f+1   
   75    9Mg4f+2       9Mg4f+3       9Mg1g-4       9Mg1g-3       9Mg1g-2       9Mg1g-1       9Mg1g0        9Mg1g+1       9Mg1g+2       9Mg1g+3   
   76    9Mg1g+4      10Mg1s        10Mg2s        10Mg3s        10Mg4s        10Mg5s        10Mg6s        10Mg7s        10Mg8s        10Mg9s     
   77   10Mg10s       10Mg11s       10Mg12s       10Mg13s       10Mg1pz       10Mg1py       10Mg1px       10Mg2pz       10Mg2py       10Mg2px    
   78   10Mg3pz       10Mg3py       10Mg3px       10Mg4pz       10Mg4py       10Mg4px       10Mg5pz       10Mg5py       10Mg5px       10Mg6pz    
   79   10Mg6py       10Mg6px       10Mg7pz       10Mg7py       10Mg7px       10Mg8pz       10Mg8py       10Mg8px       10Mg9pz       10Mg9py    
   80   10Mg9px       10Mg1d-2      10Mg1d-1      10Mg1d0       10Mg1d+1      10Mg1d+2      10Mg2d-2      10Mg2d-1      10Mg2d0       10Mg2d+1   
   81   10Mg2d+2      10Mg3d-2      10Mg3d-1      10Mg3d0       10Mg3d+1      10Mg3d+2      10Mg4d-2      10Mg4d-1      10Mg4d0       10Mg4d+1   
   82   10Mg4d+2      10Mg5d-2      10Mg5d-1      10Mg5d0       10Mg5d+1      10Mg5d+2      10Mg6d-2      10Mg6d-1      10Mg6d0       10Mg6d+1   
   83   10Mg6d+2      10Mg7d-2      10Mg7d-1      10Mg7d0       10Mg7d+1      10Mg7d+2      10Mg1f-3      10Mg1f-2      10Mg1f-1      10Mg1f0    
   84   10Mg1f+1      10Mg1f+2      10Mg1f+3      10Mg2f-3      10Mg2f-2      10Mg2f-1      10Mg2f0       10Mg2f+1      10Mg2f+2      10Mg2f+3   
   85   10Mg3f-3      10Mg3f-2      10Mg3f-1      10Mg3f0       10Mg3f+1      10Mg3f+2      10Mg3f+3      10Mg4f-3      10Mg4f-2      10Mg4f-1   
   86   10Mg4f0       10Mg4f+1      10Mg4f+2      10Mg4f+3      10Mg1g-4      10Mg1g-3      10Mg1g-2      10Mg1g-1      10Mg1g0       10Mg1g+1   
   87   10Mg1g+2      10Mg1g+3      10Mg1g+4      11Mg1s        11Mg2s        11Mg3s        11Mg4s        11Mg5s        11Mg6s        11Mg7s     
   88   11Mg8s        11Mg9s        11Mg10s       11Mg11s       11Mg12s       11Mg13s       11Mg1pz       11Mg1py       11Mg1px       11Mg2pz    
   89   11Mg2py       11Mg2px       11Mg3pz       11Mg3py       11Mg3px       11Mg4pz       11Mg4py       11Mg4px       11Mg5pz       11Mg5py    
   90   11Mg5px       11Mg6pz       11Mg6py       11Mg6px       11Mg7pz       11Mg7py       11Mg7px       11Mg8pz       11Mg8py       11Mg8px    
   91   11Mg9pz       11Mg9py       11Mg9px       11Mg1d-2      11Mg1d-1      11Mg1d0       11Mg1d+1      11Mg1d+2      11Mg2d-2      11Mg2d-1   
   92   11Mg2d0       11Mg2d+1      11Mg2d+2      11Mg3d-2      11Mg3d-1      11Mg3d0       11Mg3d+1      11Mg3d+2      11Mg4d-2      11Mg4d-1   
   93   11Mg4d0       11Mg4d+1      11Mg4d+2      11Mg5d-2      11Mg5d-1      11Mg5d0       11Mg5d+1      11Mg5d+2      11Mg6d-2      11Mg6d-1   
   94   11Mg6d0       11Mg6d+1      11Mg6d+2      11Mg7d-2      11Mg7d-1      11Mg7d0       11Mg7d+1      11Mg7d+2      11Mg1f-3      11Mg1f-2   
   95   11Mg1f-1      11Mg1f0       11Mg1f+1      11Mg1f+2      11Mg1f+3      11Mg2f-3      11Mg2f-2      11Mg2f-1      11Mg2f0       11Mg2f+1   
   96   11Mg2f+2      11Mg2f+3      11Mg3f-3      11Mg3f-2      11Mg3f-1      11Mg3f0       11Mg3f+1      11Mg3f+2      11Mg3f+3      11Mg4f-3   
   97   11Mg4f-2      11Mg4f-1      11Mg4f0       11Mg4f+1      11Mg4f+2      11Mg4f+3      11Mg1g-4      11Mg1g-3      11Mg1g-2      11Mg1g-1   
   98   11Mg1g0       11Mg1g+1      11Mg1g+2      11Mg1g+3      11Mg1g+4      12Mg1s        12Mg2s        12Mg3s        12Mg4s        12Mg5s     
   99   12Mg6s        12Mg7s        12Mg8s        12Mg9s        12Mg10s       12Mg11s       12Mg12s       12Mg13s       12Mg1pz       12Mg1py    
  100   12Mg1px       12Mg2pz       12Mg2py       12Mg2px       12Mg3pz       12Mg3py       12Mg3px       12Mg4pz       12Mg4py       12Mg4px    
  101   12Mg5pz       12Mg5py       12Mg5px       12Mg6pz       12Mg6py       12Mg6px       12Mg7pz       12Mg7py       12Mg7px       12Mg8pz    
  102   12Mg8py       12Mg8px       12Mg9pz       12Mg9py       12Mg9px       12Mg1d-2      12Mg1d-1      12Mg1d0       12Mg1d+1      12Mg1d+2   
  103   12Mg2d-2      12Mg2d-1      12Mg2d0       12Mg2d+1      12Mg2d+2      12Mg3d-2      12Mg3d-1      12Mg3d0       12Mg3d+1      12Mg3d+2   
  104   12Mg4d-2      12Mg4d-1      12Mg4d0       12Mg4d+1      12Mg4d+2      12Mg5d-2      12Mg5d-1      12Mg5d0       12Mg5d+1      12Mg5d+2   
  105   12Mg6d-2      12Mg6d-1      12Mg6d0       12Mg6d+1      12Mg6d+2      12Mg7d-2      12Mg7d-1      12Mg7d0       12Mg7d+1      12Mg7d+2   
  106   12Mg1f-3      12Mg1f-2      12Mg1f-1      12Mg1f0       12Mg1f+1      12Mg1f+2      12Mg1f+3      12Mg2f-3      12Mg2f-2      12Mg2f-1   
  107   12Mg2f0       12Mg2f+1      12Mg2f+2      12Mg2f+3      12Mg3f-3      12Mg3f-2      12Mg3f-1      12Mg3f0       12Mg3f+1      12Mg3f+2   
  108   12Mg3f+3      12Mg4f-3      12Mg4f-2      12Mg4f-1      12Mg4f0       12Mg4f+1      12Mg4f+2      12Mg4f+3      12Mg1g-4      12Mg1g-3   
  109   12Mg1g-2      12Mg1g-1      12Mg1g0       12Mg1g+1      12Mg1g+2      12Mg1g+3      12Mg1g+4      13O1s         13O2s         13O3s      
  110   13O4s         13O5s         13O6s         13O7s         13O8s         13O9s         13O10s        13O1pz        13O1py        13O1px     
  111   13O2pz        13O2py        13O2px        13O3pz        13O3py        13O3px        13O4pz        13O4py        13O4px        13O5pz     
  112   13O5py        13O5px        13O6pz        13O6py        13O6px        13O7pz        13O7py        13O7px        13O8pz        13O8py     
  113   13O8px        13O1d-2       13O1d-1       13O1d0        13O1d+1       13O1d+2       13O2d-2       13O2d-1       13O2d0        13O2d+1    
  114   13O2d+2       13O3d-2       13O3d-1       13O3d0        13O3d+1       13O3d+2       13O4d-2       13O4d-1       13O4d0        13O4d+1    
  115   13O4d+2       13O1f-3       13O1f-2       13O1f-1       13O1f0        13O1f+1       13O1f+2       13O1f+3       13O2f-3       13O2f-2    
  116   13O2f-1       13O2f0        13O2f+1       13O2f+2       13O2f+3       13O1g-4       13O1g-3       13O1g-2       13O1g-1       13O1g0     
  117   13O1g+1       13O1g+2       13O1g+3       13O1g+4       14O1s         14O2s         14O3s         14O4s         14O5s         14O6s      
  118   14O7s         14O8s         14O9s         14O10s        14O1pz        14O1py        14O1px        14O2pz        14O2py        14O2px     
  119   14O3pz        14O3py        14O3px        14O4pz        14O4py        14O4px        14O5pz        14O5py        14O5px        14O6pz     
  120   14O6py        14O6px        14O7pz        14O7py        14O7px        14O8pz        14O8py        14O8px        14O1d-2       14O1d-1    
  121   14O1d0        14O1d+1       14O1d+2       14O2d-2       14O2d-1       14O2d0        14O2d+1       14O2d+2       14O3d-2       14O3d-1    
  122   14O3d0        14O3d+1       14O3d+2       14O4d-2       14O4d-1       14O4d0        14O4d+1       14O4d+2       14O1f-3       14O1f-2    
  123   14O1f-1       14O1f0        14O1f+1       14O1f+2       14O1f+3       14O2f-3       14O2f-2       14O2f-1       14O2f0        14O2f+1    
  124   14O2f+2       14O2f+3       14O1g-4       14O1g-3       14O1g-2       14O1g-1       14O1g0        14O1g+1       14O1g+2       14O1g+3    
  125   14O1g+4       15O1s         15O2s         15O3s         15O4s         15O5s         15O6s         15O7s         15O8s         15O9s      
  126   15O10s        15O1pz        15O1py        15O1px        15O2pz        15O2py        15O2px        15O3pz        15O3py        15O3px     
  127   15O4pz        15O4py        15O4px        15O5pz        15O5py        15O5px        15O6pz        15O6py        15O6px        15O7pz     
  128   15O7py        15O7px        15O8pz        15O8py        15O8px        15O1d-2       15O1d-1       15O1d0        15O1d+1       15O1d+2    
  129   15O2d-2       15O2d-1       15O2d0        15O2d+1       15O2d+2       15O3d-2       15O3d-1       15O3d0        15O3d+1       15O3d+2    
  130   15O4d-2       15O4d-1       15O4d0        15O4d+1       15O4d+2       15O1f-3       15O1f-2       15O1f-1       15O1f0        15O1f+1    
  131   15O1f+2       15O1f+3       15O2f-3       15O2f-2       15O2f-1       15O2f0        15O2f+1       15O2f+2       15O2f+3       15O1g-4    
  132   15O1g-3       15O1g-2       15O1g-1       15O1g0        15O1g+1       15O1g+2       15O1g+3       15O1g+4       16O1s         16O2s      
  133   16O3s         16O4s         16O5s         16O6s         16O7s         16O8s         16O9s         16O10s        16O1pz        16O1py     
  134   16O1px        16O2pz        16O2py        16O2px        16O3pz        16O3py        16O3px        16O4pz        16O4py        16O4px     
  135   16O5pz        16O5py        16O5px        16O6pz        16O6py        16O6px        16O7pz        16O7py        16O7px        16O8pz     
  136   16O8py        16O8px        16O1d-2       16O1d-1       16O1d0        16O1d+1       16O1d+2       16O2d-2       16O2d-1       16O2d0     
  137   16O2d+1       16O2d+2       16O3d-2       16O3d-1       16O3d0        16O3d+1       16O3d+2       16O4d-2       16O4d-1       16O4d0     
  138   16O4d+1       16O4d+2       16O1f-3       16O1f-2       16O1f-1       16O1f0        16O1f+1       16O1f+2       16O1f+3       16O2f-3    
  139   16O2f-2       16O2f-1       16O2f0        16O2f+1       16O2f+2       16O2f+3       16O1g-4       16O1g-3       16O1g-2       16O1g-1    
  140   16O1g0        16O1g+1       16O1g+2       16O1g+3       16O1g+4       17Mg1s        17Mg2s        17Mg3s        17Mg4s        17Mg5s     
  141   17Mg6s        17Mg7s        17Mg8s        17Mg9s        17Mg10s       17Mg11s       17Mg12s       17Mg13s       17Mg1pz       17Mg1py    
  142   17Mg1px       17Mg2pz       17Mg2py       17Mg2px       17Mg3pz       17Mg3py       17Mg3px       17Mg4pz       17Mg4py       17Mg4px    
  143   17Mg5pz       17Mg5py       17Mg5px       17Mg6pz       17Mg6py       17Mg6px       17Mg7pz       17Mg7py       17Mg7px       17Mg8pz    
  144   17Mg8py       17Mg8px       17Mg9pz       17Mg9py       17Mg9px       17Mg1d-2      17Mg1d-1      17Mg1d0       17Mg1d+1      17Mg1d+2   
  145   17Mg2d-2      17Mg2d-1      17Mg2d0       17Mg2d+1      17Mg2d+2      17Mg3d-2      17Mg3d-1      17Mg3d0       17Mg3d+1      17Mg3d+2   
  146   17Mg4d-2      17Mg4d-1      17Mg4d0       17Mg4d+1      17Mg4d+2      17Mg5d-2      17Mg5d-1      17Mg5d0       17Mg5d+1      17Mg5d+2   
  147   17Mg6d-2      17Mg6d-1      17Mg6d0       17Mg6d+1      17Mg6d+2      17Mg7d-2      17Mg7d-1      17Mg7d0       17Mg7d+1      17Mg7d+2   
  148   17Mg1f-3      17Mg1f-2      17Mg1f-1      17Mg1f0       17Mg1f+1      17Mg1f+2      17Mg1f+3      17Mg2f-3      17Mg2f-2      17Mg2f-1   
  149   17Mg2f0       17Mg2f+1      17Mg2f+2      17Mg2f+3      17Mg3f-3      17Mg3f-2      17Mg3f-1      17Mg3f0       17Mg3f+1      17Mg3f+2   
  150   17Mg3f+3      17Mg4f-3      17Mg4f-2      17Mg4f-1      17Mg4f0       17Mg4f+1      17Mg4f+2      17Mg4f+3      17Mg1g-4      17Mg1g-3   
  151   17Mg1g-2      17Mg1g-1      17Mg1g0       17Mg1g+1      17Mg1g+2      17Mg1g+3      17Mg1g+4      18Mg1s        18Mg2s        18Mg3s     
  152   18Mg4s        18Mg5s        18Mg6s        18Mg7s        18Mg8s        18Mg9s        18Mg10s       18Mg11s       18Mg12s       18Mg13s    
  153   18Mg1pz       18Mg1py       18Mg1px       18Mg2pz       18Mg2py       18Mg2px       18Mg3pz       18Mg3py       18Mg3px       18Mg4pz    
  154   18Mg4py       18Mg4px       18Mg5pz       18Mg5py       18Mg5px       18Mg6pz       18Mg6py       18Mg6px       18Mg7pz       18Mg7py    
  155   18Mg7px       18Mg8pz       18Mg8py       18Mg8px       18Mg9pz       18Mg9py       18Mg9px       18Mg1d-2      18Mg1d-1      18Mg1d0    
  156   18Mg1d+1      18Mg1d+2      18Mg2d-2      18Mg2d-1      18Mg2d0       18Mg2d+1      18Mg2d+2      18Mg3d-2      18Mg3d-1      18Mg3d0    
  157   18Mg3d+1      18Mg3d+2      18Mg4d-2      18Mg4d-1      18Mg4d0       18Mg4d+1      18Mg4d+2      18Mg5d-2      18Mg5d-1      18Mg5d0    
  158   18Mg5d+1      18Mg5d+2      18Mg6d-2      18Mg6d-1      18Mg6d0       18Mg6d+1      18Mg6d+2      18Mg7d-2      18Mg7d-1      18Mg7d0    
  159   18Mg7d+1      18Mg7d+2      18Mg1f-3      18Mg1f-2      18Mg1f-1      18Mg1f0       18Mg1f+1      18Mg1f+2      18Mg1f+3      18Mg2f-3   
  160   18Mg2f-2      18Mg2f-1      18Mg2f0       18Mg2f+1      18Mg2f+2      18Mg2f+3      18Mg3f-3      18Mg3f-2      18Mg3f-1      18Mg3f0    
  161   18Mg3f+1      18Mg3f+2      18Mg3f+3      18Mg4f-3      18Mg4f-2      18Mg4f-1      18Mg4f0       18Mg4f+1      18Mg4f+2      18Mg4f+3   
  162   18Mg1g-4      18Mg1g-3      18Mg1g-2      18Mg1g-1      18Mg1g0       18Mg1g+1      18Mg1g+2      18Mg1g+3      18Mg1g+4      19Mg1s     
  163   19Mg2s        19Mg3s        19Mg4s        19Mg5s        19Mg6s        19Mg7s        19Mg8s        19Mg9s        19Mg10s       19Mg11s    
  164   19Mg12s       19Mg13s       19Mg1pz       19Mg1py       19Mg1px       19Mg2pz       19Mg2py       19Mg2px       19Mg3pz       19Mg3py    
  165   19Mg3px       19Mg4pz       19Mg4py       19Mg4px       19Mg5pz       19Mg5py       19Mg5px       19Mg6pz       19Mg6py       19Mg6px    
  166   19Mg7pz       19Mg7py       19Mg7px       19Mg8pz       19Mg8py       19Mg8px       19Mg9pz       19Mg9py       19Mg9px       19Mg1d-2   
  167   19Mg1d-1      19Mg1d0       19Mg1d+1      19Mg1d+2      19Mg2d-2      19Mg2d-1      19Mg2d0       19Mg2d+1      19Mg2d+2      19Mg3d-2   
  168   19Mg3d-1      19Mg3d0       19Mg3d+1      19Mg3d+2      19Mg4d-2      19Mg4d-1      19Mg4d0       19Mg4d+1      19Mg4d+2      19Mg5d-2   
  169   19Mg5d-1      19Mg5d0       19Mg5d+1      19Mg5d+2      19Mg6d-2      19Mg6d-1      19Mg6d0       19Mg6d+1      19Mg6d+2      19Mg7d-2   
  170   19Mg7d-1      19Mg7d0       19Mg7d+1      19Mg7d+2      19Mg1f-3      19Mg1f-2      19Mg1f-1      19Mg1f0       19Mg1f+1      19Mg1f+2   
  171   19Mg1f+3      19Mg2f-3      19Mg2f-2      19Mg2f-1      19Mg2f0       19Mg2f+1      19Mg2f+2      19Mg2f+3      19Mg3f-3      19Mg3f-2   
  172   19Mg3f-1      19Mg3f0       19Mg3f+1      19Mg3f+2      19Mg3f+3      19Mg4f-3      19Mg4f-2      19Mg4f-1      19Mg4f0       19Mg4f+1   
  173   19Mg4f+2      19Mg4f+3      19Mg1g-4      19Mg1g-3      19Mg1g-2      19Mg1g-1      19Mg1g0       19Mg1g+1      19Mg1g+2      19Mg1g+3   
  174   19Mg1g+4      20Mg1s        20Mg2s        20Mg3s        20Mg4s        20Mg5s        20Mg6s        20Mg7s        20Mg8s        20Mg9s     
  175   20Mg10s       20Mg11s       20Mg12s       20Mg13s       20Mg1pz       20Mg1py       20Mg1px       20Mg2pz       20Mg2py       20Mg2px    
  176   20Mg3pz       20Mg3py       20Mg3px       20Mg4pz       20Mg4py       20Mg4px       20Mg5pz       20Mg5py       20Mg5px       20Mg6pz    
  177   20Mg6py       20Mg6px       20Mg7pz       20Mg7py       20Mg7px       20Mg8pz       20Mg8py       20Mg8px       20Mg9pz       20Mg9py    
  178   20Mg9px       20Mg1d-2      20Mg1d-1      20Mg1d0       20Mg1d+1      20Mg1d+2      20Mg2d-2      20Mg2d-1      20Mg2d0       20Mg2d+1   
  179   20Mg2d+2      20Mg3d-2      20Mg3d-1      20Mg3d0       20Mg3d+1      20Mg3d+2      20Mg4d-2      20Mg4d-1      20Mg4d0       20Mg4d+1   
  180   20Mg4d+2      20Mg5d-2      20Mg5d-1      20Mg5d0       20Mg5d+1      20Mg5d+2      20Mg6d-2      20Mg6d-1      20Mg6d0       20Mg6d+1   
  181   20Mg6d+2      20Mg7d-2      20Mg7d-1      20Mg7d0       20Mg7d+1      20Mg7d+2      20Mg1f-3      20Mg1f-2      20Mg1f-1      20Mg1f0    
  182   20Mg1f+1      20Mg1f+2      20Mg1f+3      20Mg2f-3      20Mg2f-2      20Mg2f-1      20Mg2f0       20Mg2f+1      20Mg2f+2      20Mg2f+3   
  183   20Mg3f-3      20Mg3f-2      20Mg3f-1      20Mg3f0       20Mg3f+1      20Mg3f+2      20Mg3f+3      20Mg4f-3      20Mg4f-2      20Mg4f-1   
  184   20Mg4f0       20Mg4f+1      20Mg4f+2      20Mg4f+3      20Mg1g-4      20Mg1g-3      20Mg1g-2      20Mg1g-1      20Mg1g0       20Mg1g+1   
  185   20Mg1g+2      20Mg1g+3      20Mg1g+4      21O1s         21O2s         21O3s         21O4s         21O5s         21O6s         21O7s      
  186   21O8s         21O9s         21O10s        21O1pz        21O1py        21O1px        21O2pz        21O2py        21O2px        21O3pz     
  187   21O3py        21O3px        21O4pz        21O4py        21O4px        21O5pz        21O5py        21O5px        21O6pz        21O6py     
  188   21O6px        21O7pz        21O7py        21O7px        21O8pz        21O8py        21O8px        21O1d-2       21O1d-1       21O1d0     
  189   21O1d+1       21O1d+2       21O2d-2       21O2d-1       21O2d0        21O2d+1       21O2d+2       21O3d-2       21O3d-1       21O3d0     
  190   21O3d+1       21O3d+2       21O4d-2       21O4d-1       21O4d0        21O4d+1       21O4d+2       21O1f-3       21O1f-2       21O1f-1    
  191   21O1f0        21O1f+1       21O1f+2       21O1f+3       21O2f-3       21O2f-2       21O2f-1       21O2f0        21O2f+1       21O2f+2    
  192   21O2f+3       21O1g-4       21O1g-3       21O1g-2       21O1g-1       21O1g0        21O1g+1       21O1g+2       21O1g+3       21O1g+4    
  193   22O1s         22O2s         22O3s         22O4s         22O5s         22O6s         22O7s         22O8s         22O9s         22O10s     
  194   22O1pz        22O1py        22O1px        22O2pz        22O2py        22O2px        22O3pz        22O3py        22O3px        22O4pz     
  195   22O4py        22O4px        22O5pz        22O5py        22O5px        22O6pz        22O6py        22O6px        22O7pz        22O7py     
  196   22O7px        22O8pz        22O8py        22O8px        22O1d-2       22O1d-1       22O1d0        22O1d+1       22O1d+2       22O2d-2    
  197   22O2d-1       22O2d0        22O2d+1       22O2d+2       22O3d-2       22O3d-1       22O3d0        22O3d+1       22O3d+2       22O4d-2    
  198   22O4d-1       22O4d0        22O4d+1       22O4d+2       22O1f-3       22O1f-2       22O1f-1       22O1f0        22O1f+1       22O1f+2    
  199   22O1f+3       22O2f-3       22O2f-2       22O2f-1       22O2f0        22O2f+1       22O2f+2       22O2f+3       22O1g-4       22O1g-3    
  200   22O1g-2       22O1g-1       22O1g0        22O1g+1       22O1g+2       22O1g+3       22O1g+4       23O1s         23O2s         23O3s      
  201   23O4s         23O5s         23O6s         23O7s         23O8s         23O9s         23O10s        23O1pz        23O1py        23O1px     
  202   23O2pz        23O2py        23O2px        23O3pz        23O3py        23O3px        23O4pz        23O4py        23O4px        23O5pz     
  203   23O5py        23O5px        23O6pz        23O6py        23O6px        23O7pz        23O7py        23O7px        23O8pz        23O8py     
  204   23O8px        23O1d-2       23O1d-1       23O1d0        23O1d+1       23O1d+2       23O2d-2       23O2d-1       23O2d0        23O2d+1    
  205   23O2d+2       23O3d-2       23O3d-1       23O3d0        23O3d+1       23O3d+2       23O4d-2       23O4d-1       23O4d0        23O4d+1    
  206   23O4d+2       23O1f-3       23O1f-2       23O1f-1       23O1f0        23O1f+1       23O1f+2       23O1f+3       23O2f-3       23O2f-2    
  207   23O2f-1       23O2f0        23O2f+1       23O2f+2       23O2f+3       23O1g-4       23O1g-3       23O1g-2       23O1g-1       23O1g0     
  208   23O1g+1       23O1g+2       23O1g+3       23O1g+4       24O1s         24O2s         24O3s         24O4s         24O5s         24O6s      
  209   24O7s         24O8s         24O9s         24O10s        24O1pz        24O1py        24O1px        24O2pz        24O2py        24O2px     
  210   24O3pz        24O3py        24O3px        24O4pz        24O4py        24O4px        24O5pz        24O5py        24O5px        24O6pz     
  211   24O6py        24O6px        24O7pz        24O7py        24O7px        24O8pz        24O8py        24O8px        24O1d-2       24O1d-1    
  212   24O1d0        24O1d+1       24O1d+2       24O2d-2       24O2d-1       24O2d0        24O2d+1       24O2d+2       24O3d-2       24O3d-1    
  213   24O3d0        24O3d+1       24O3d+2       24O4d-2       24O4d-1       24O4d0        24O4d+1       24O4d+2       24O1f-3       24O1f-2    
  214   24O1f-1       24O1f0        24O1f+1       24O1f+2       24O1f+3       24O2f-3       24O2f-2       24O2f-1       24O2f0        24O2f+1    
  215   24O2f+2       24O2f+3       24O1g-4       24O1g-3       24O1g-2       24O1g-1       24O1g0        24O1g+1       24O1g+2       24O1g+3    
  216   24O1g+4       25O1s         25O2s         25O3s         25O4s         25O5s         25O6s         25O7s         25O8s         25O9s      
  217   25O10s        25O1pz        25O1py        25O1px        25O2pz        25O2py        25O2px        25O3pz        25O3py        25O3px     
  218   25O4pz        25O4py        25O4px        25O5pz        25O5py        25O5px        25O6pz        25O6py        25O6px        25O7pz     
  219   25O7py        25O7px        25O8pz        25O8py        25O8px        25O1d-2       25O1d-1       25O1d0        25O1d+1       25O1d+2    
  220   25O2d-2       25O2d-1       25O2d0        25O2d+1       25O2d+2       25O3d-2       25O3d-1       25O3d0        25O3d+1       25O3d+2    
  221   25O4d-2       25O4d-1       25O4d0        25O4d+1       25O4d+2       25O1f-3       25O1f-2       25O1f-1       25O1f0        25O1f+1    
  222   25O1f+2       25O1f+3       25O2f-3       25O2f-2       25O2f-1       25O2f0        25O2f+1       25O2f+2       25O2f+3       25O1g-4    
  223   25O1g-3       25O1g-2       25O1g-1       25O1g0        25O1g+1       25O1g+2       25O1g+3       25O1g+4       26O1s         26O2s      
  224   26O3s         26O4s         26O5s         26O6s         26O7s         26O8s         26O9s         26O10s        26O1pz        26O1py     
  225   26O1px        26O2pz        26O2py        26O2px        26O3pz        26O3py        26O3px        26O4pz        26O4py        26O4px     
  226   26O5pz        26O5py        26O5px        26O6pz        26O6py        26O6px        26O7pz        26O7py        26O7px        26O8pz     
  227   26O8py        26O8px        26O1d-2       26O1d-1       26O1d0        26O1d+1       26O1d+2       26O2d-2       26O2d-1       26O2d0     
  228   26O2d+1       26O2d+2       26O3d-2       26O3d-1       26O3d0        26O3d+1       26O3d+2       26O4d-2       26O4d-1       26O4d0     
  229   26O4d+1       26O4d+2       26O1f-3       26O1f-2       26O1f-1       26O1f0        26O1f+1       26O1f+2       26O1f+3       26O2f-3    
  230   26O2f-2       26O2f-1       26O2f0        26O2f+1       26O2f+2       26O2f+3       26O1g-4       26O1g-3       26O1g-2       26O1g-1    
  231   26O1g0        26O1g+1       26O1g+2       26O1g+3       26O1g+4       27O1s         27O2s         27O3s         27O4s         27O5s      
  232   27O6s         27O7s         27O8s         27O9s         27O10s        27O1pz        27O1py        27O1px        27O2pz        27O2py     
  233   27O2px        27O3pz        27O3py        27O3px        27O4pz        27O4py        27O4px        27O5pz        27O5py        27O5px     
  234   27O6pz        27O6py        27O6px        27O7pz        27O7py        27O7px        27O8pz        27O8py        27O8px        27O1d-2    
  235   27O1d-1       27O1d0        27O1d+1       27O1d+2       27O2d-2       27O2d-1       27O2d0        27O2d+1       27O2d+2       27O3d-2    
  236   27O3d-1       27O3d0        27O3d+1       27O3d+2       27O4d-2       27O4d-1       27O4d0        27O4d+1       27O4d+2       27O1f-3    
  237   27O1f-2       27O1f-1       27O1f0        27O1f+1       27O1f+2       27O1f+3       27O2f-3       27O2f-2       27O2f-1       27O2f0     
  238   27O2f+1       27O2f+2       27O2f+3       27O1g-4       27O1g-3       27O1g-2       27O1g-1       27O1g0        27O1g+1       27O1g+2    
  239   27O1g+3       27O1g+4       28O1s         28O2s         28O3s         28O4s         28O5s         28O6s         28O7s         28O8s      
  240   28O9s         28O10s        28O1pz        28O1py        28O1px        28O2pz        28O2py        28O2px        28O3pz        28O3py     
  241   28O3px        28O4pz        28O4py        28O4px        28O5pz        28O5py        28O5px        28O6pz        28O6py        28O6px     
  242   28O7pz        28O7py        28O7px        28O8pz        28O8py        28O8px        28O1d-2       28O1d-1       28O1d0        28O1d+1    
  243   28O1d+2       28O2d-2       28O2d-1       28O2d0        28O2d+1       28O2d+2       28O3d-2       28O3d-1       28O3d0        28O3d+1    
  244   28O3d+2       28O4d-2       28O4d-1       28O4d0        28O4d+1       28O4d+2       28O1f-3       28O1f-2       28O1f-1       28O1f0     
  245   28O1f+1       28O1f+2       28O1f+3       28O2f-3       28O2f-2       28O2f-1       28O2f0        28O2f+1       28O2f+2       28O2f+3    
  246   28O1g-4       28O1g-3       28O1g-2       28O1g-1       28O1g0        28O1g+1       28O1g+2       28O1g+3       28O1g+4       29O1s      
  247   29O2s         29O3s         29O4s         29O5s         29O6s         29O7s         29O8s         29O9s         29O10s        29O1pz     
  248   29O1py        29O1px        29O2pz        29O2py        29O2px        29O3pz        29O3py        29O3px        29O4pz        29O4py     
  249   29O4px        29O5pz        29O5py        29O5px        29O6pz        29O6py        29O6px        29O7pz        29O7py        29O7px     
  250   29O8pz        29O8py        29O8px        29O1d-2       29O1d-1       29O1d0        29O1d+1       29O1d+2       29O2d-2       29O2d-1    
  251   29O2d0        29O2d+1       29O2d+2       29O3d-2       29O3d-1       29O3d0        29O3d+1       29O3d+2       29O4d-2       29O4d-1    
  252   29O4d0        29O4d+1       29O4d+2       29O1f-3       29O1f-2       29O1f-1       29O1f0        29O1f+1       29O1f+2       29O1f+3    
  253   29O2f-3       29O2f-2       29O2f-1       29O2f0        29O2f+1       29O2f+2       29O2f+3       29O1g-4       29O1g-3       29O1g-2    
  254   29O1g-1       29O1g0        29O1g+1       29O1g+2       29O1g+3       29O1g+4       30O1s         30O2s         30O3s         30O4s      
  255   30O5s         30O6s         30O7s         30O8s         30O9s         30O10s        30O1pz        30O1py        30O1px        30O2pz     
  256   30O2py        30O2px        30O3pz        30O3py        30O3px        30O4pz        30O4py        30O4px        30O5pz        30O5py     
  257   30O5px        30O6pz        30O6py        30O6px        30O7pz        30O7py        30O7px        30O8pz        30O8py        30O8px     
  258   30O1d-2       30O1d-1       30O1d0        30O1d+1       30O1d+2       30O2d-2       30O2d-1       30O2d0        30O2d+1       30O2d+2    
  259   30O3d-2       30O3d-1       30O3d0        30O3d+1       30O3d+2       30O4d-2       30O4d-1       30O4d0        30O4d+1       30O4d+2    
  260   30O1f-3       30O1f-2       30O1f-1       30O1f0        30O1f+1       30O1f+2       30O1f+3       30O2f-3       30O2f-2       30O2f-1    
  261   30O2f0        30O2f+1       30O2f+2       30O2f+3       30O1g-4       30O1g-3       30O1g-2       30O1g-1       30O1g0        30O1g+1    
  262   30O1g+2       30O1g+3       30O1g+4       31O1s         31O2s         31O3s         31O4s         31O5s         31O6s         31O7s      
  263   31O8s         31O9s         31O10s        31O1pz        31O1py        31O1px        31O2pz        31O2py        31O2px        31O3pz     
  264   31O3py        31O3px        31O4pz        31O4py        31O4px        31O5pz        31O5py        31O5px        31O6pz        31O6py     
  265   31O6px        31O7pz        31O7py        31O7px        31O8pz        31O8py        31O8px        31O1d-2       31O1d-1       31O1d0     
  266   31O1d+1       31O1d+2       31O2d-2       31O2d-1       31O2d0        31O2d+1       31O2d+2       31O3d-2       31O3d-1       31O3d0     
  267   31O3d+1       31O3d+2       31O4d-2       31O4d-1       31O4d0        31O4d+1       31O4d+2       31O1f-3       31O1f-2       31O1f-1    
  268   31O1f0        31O1f+1       31O1f+2       31O1f+3       31O2f-3       31O2f-2       31O2f-1       31O2f0        31O2f+1       31O2f+2    
  269   31O2f+3       31O1g-4       31O1g-3       31O1g-2       31O1g-1       31O1g0        31O1g+1       31O1g+2       31O1g+3       31O1g+4    
  270   32O1s         32O2s         32O3s         32O4s         32O5s         32O6s         32O7s         32O8s         32O9s         32O10s     
  271   32O1pz        32O1py        32O1px        32O2pz        32O2py        32O2px        32O3pz        32O3py        32O3px        32O4pz     
  272   32O4py        32O4px        32O5pz        32O5py        32O5px        32O6pz        32O6py        32O6px        32O7pz        32O7py     
  273   32O7px        32O8pz        32O8py        32O8px        32O1d-2       32O1d-1       32O1d0        32O1d+1       32O1d+2       32O2d-2    
  274   32O2d-1       32O2d0        32O2d+1       32O2d+2       32O3d-2       32O3d-1       32O3d0        32O3d+1       32O3d+2       32O4d-2    
  275   32O4d-1       32O4d0        32O4d+1       32O4d+2       32O1f-3       32O1f-2       32O1f-1       32O1f0        32O1f+1       32O1f+2    
  276   32O1f+3       32O2f-3       32O2f-2       32O2f-1       32O2f0        32O2f+1       32O2f+2       32O2f+3       32O1g-4       32O1g-3    
  277   32O1g-2       32O1g-1       32O1g0        32O1g+1       32O1g+2       32O1g+3       32O1g+4       33O1s         33O2s         33O3s      
  278   33O4s         33O5s         33O6s         33O7s         33O8s         33O9s         33O10s        33O1pz        33O1py        33O1px     
  279   33O2pz        33O2py        33O2px        33O3pz        33O3py        33O3px        33O4pz        33O4py        33O4px        33O5pz     
  280   33O5py        33O5px        33O6pz        33O6py        33O6px        33O7pz        33O7py        33O7px        33O8pz        33O8py     
  281   33O8px        33O1d-2       33O1d-1       33O1d0        33O1d+1       33O1d+2       33O2d-2       33O2d-1       33O2d0        33O2d+1    
  282   33O2d+2       33O3d-2       33O3d-1       33O3d0        33O3d+1       33O3d+2       33O4d-2       33O4d-1       33O4d0        33O4d+1    
  283   33O4d+2       33O1f-3       33O1f-2       33O1f-1       33O1f0        33O1f+1       33O1f+2       33O1f+3       33O2f-3       33O2f-2    
  284   33O2f-1       33O2f0        33O2f+1       33O2f+2       33O2f+3       33O1g-4       33O1g-3       33O1g-2       33O1g-1       33O1g0     
  285   33O1g+1       33O1g+2       33O1g+3       33O1g+4       34O1s         34O2s         34O3s         34O4s         34O5s         34O6s      
  286   34O7s         34O8s         34O9s         34O10s        34O1pz        34O1py        34O1px        34O2pz        34O2py        34O2px     
  287   34O3pz        34O3py        34O3px        34O4pz        34O4py        34O4px        34O5pz        34O5py        34O5px        34O6pz     
  288   34O6py        34O6px        34O7pz        34O7py        34O7px        34O8pz        34O8py        34O8px        34O1d-2       34O1d-1    
  289   34O1d0        34O1d+1       34O1d+2       34O2d-2       34O2d-1       34O2d0        34O2d+1       34O2d+2       34O3d-2       34O3d-1    
  290   34O3d0        34O3d+1       34O3d+2       34O4d-2       34O4d-1       34O4d0        34O4d+1       34O4d+2       34O1f-3       34O1f-2    
  291   34O1f-1       34O1f0        34O1f+1       34O1f+2       34O1f+3       34O2f-3       34O2f-2       34O2f-1       34O2f0        34O2f+1    
  292   34O2f+2       34O2f+3       34O1g-4       34O1g-3       34O1g-2       34O1g-1       34O1g0        34O1g+1       34O1g+2       34O1g+3    
  293   34O1g+4       35O1s         35O2s         35O3s         35O4s         35O5s         35O6s         35O7s         35O8s         35O9s      
  294   35O10s        35O1pz        35O1py        35O1px        35O2pz        35O2py        35O2px        35O3pz        35O3py        35O3px     
  295   35O4pz        35O4py        35O4px        35O5pz        35O5py        35O5px        35O6pz        35O6py        35O6px        35O7pz     
  296   35O7py        35O7px        35O8pz        35O8py        35O8px        35O1d-2       35O1d-1       35O1d0        35O1d+1       35O1d+2    
  297   35O2d-2       35O2d-1       35O2d0        35O2d+1       35O2d+2       35O3d-2       35O3d-1       35O3d0        35O3d+1       35O3d+2    
  298   35O4d-2       35O4d-1       35O4d0        35O4d+1       35O4d+2       35O1f-3       35O1f-2       35O1f-1       35O1f0        35O1f+1    
  299   35O1f+2       35O1f+3       35O2f-3       35O2f-2       35O2f-1       35O2f0        35O2f+1       35O2f+2       35O2f+3       35O1g-4    
  300   35O1g-3       35O1g-2       35O1g-1       35O1g0        35O1g+1       35O1g+2       35O1g+3       35O1g+4       36O1s         36O2s      
  301   36O3s         36O4s         36O5s         36O6s         36O7s         36O8s         36O9s         36O10s        36O1pz        36O1py     
  302   36O1px        36O2pz        36O2py        36O2px        36O3pz        36O3py        36O3px        36O4pz        36O4py        36O4px     
  303   36O5pz        36O5py        36O5px        36O6pz        36O6py        36O6px        36O7pz        36O7py        36O7px        36O8pz     
  304   36O8py        36O8px        36O1d-2       36O1d-1       36O1d0        36O1d+1       36O1d+2       36O2d-2       36O2d-1       36O2d0     
  305   36O2d+1       36O2d+2       36O3d-2       36O3d-1       36O3d0        36O3d+1       36O3d+2       36O4d-2       36O4d-1       36O4d0     
  306   36O4d+1       36O4d+2       36O1f-3       36O1f-2       36O1f-1       36O1f0        36O1f+1       36O1f+2       36O1f+3       36O2f-3    
  307   36O2f-2       36O2f-1       36O2f0        36O2f+1       36O2f+2       36O2f+3       36O1g-4       36O1g-3       36O1g-2       36O1g-1    
  308   36O1g0        36O1g+1       36O1g+2       36O1g+3       36O1g+4    
 
 Maximum number of basis functions per shell:   35
 Total number of basis functions:   3085
 
 
 Initializing the SAD routines for the initial guess...
 Checking the files required for the initial guess...
 Atomic density files have been found for the atoms with the following serial numbers:
  
 Atomic density files have not been found for the atoms with the following serial numbers:
  1 2
 Generating SCFDENSITIES.C.def2-svp.0
 Generating SCFDENSITIES.O.def2-svp.0
 CPU time [min]:     0.122                   Wall time [min]:     0.046
 
 Character table for point group C1:
 
          E  
    A     1
 
 Number of basis functions per irrep:
    A     540
 
 
 Calculation of overlap integrals...
 CPU time [min]:     0.124                   Wall time [min]:     0.047
 
 Calculation of the square root of the overlap matrix...
 Minimum eigenvalue of the overlap matrix: 0.544507E-03
 CPU time [min]:     0.220                   Wall time [min]:     0.050
 
 Calculation of kinetic energy integrals...
 CPU time [min]:     0.221                   Wall time [min]:     0.050
 Calculation of dipole moment integrals...
 CPU time [min]:     0.224                   Wall time [min]:     0.050
 Calculation of nuclear attraction integrals...
 CPU time [min]:     0.228                   Wall time [min]:     0.050
 
 Calculation of prescreening integrals...
 CPU time [min]:     0.370                   Wall time [min]:     0.074
 
 Calculation of two-center Coulomb integrals...
   1% done.
  12% done.
  23% done.
  35% done.
  46% done.
  57% done.
  68% done.
  79% done.
  90% done.
 100% done.
 CPU time [min]:     0.385                   Wall time [min]:     0.074
 
 Cholesky decomposition of the two-center matrix...
 Reciprocal of the condition number:  0.265243E-06
 Warning! Ill-conditioned two-center integral matrix.
 This may result in convergence problems.
 CPU time [min]:     0.658                   Wall time [min]:     0.081
 
 
 Running small-basis SCF...

 ************************ 2022-11-14 10:46:29 *************************
 Executing scf...

 @scfsetup: integrals calculated directly
            mrcc/integ direct run
 @scfsetup: calculating on full matrices
            not using symmetry adapted basis
 @scfsetup: diis switched on
 @scfsetup: number of steps to extrapolate from  10
 @scfsetup: tolerance in energy deviation    0.100000E-05
            tolerance in density deviation    0.100000E-06
 @scfsetup: maximum number of iterations:1000
 @scfsetup: restricted closed shell hf calc
 @scfsetup: starting scf from superposition of atomic densities
 @scfsetup: occupation set:
            from initial orbitals
 @scfsetup: Parameter-set for SCF acceleration: normal
 @scfsetup: diis runs from iteration:   2
 @scfsetup: diis runs to iteration:1000
 @scfsetup: diis runs in every iteration
 @scfsetup: diiswatch is disabled                   
 @scfsetup: diis dtol criteria to switch on:      0.0000E+00
           (or the iteration number below is reached)
 @scfsetup: static damping scheme
            iteration step criteria to turn damping off: 3
 @scfsetup: dynamic level shifting
            tolarance in HOMO-LUMO gap:  0.200
            tolarance in density deviation:     0.0000E+00
            iteration step criteria to turn level shifting off: 8
 Allocation of 150.0 Gbytes of memory...
 ======================================================================
 ITERATION STEP   1
 CPU time [min]:     0.073                   Wall time [min]:     0.008
 

 SCF control                  : initial
 Damping factor/level shift   : 0.000/0.200
 DIIS [start/end/frequency]   :   2 /*** /  1

 Constructing Fock-matrix...
 
 Pipek-Mezey localization...
 Step  Convergence
   1   1.486531066543
   2   1.226156493665
   3   0.238384804124
   4   0.002674932862
   5   0.000000015604
 CPU time [min]:     0.099                   Wall time [min]:     0.009
 
 Constructing local fitting domains...
 Maximum number of atoms in fitting domains:   16
 Average number of atoms in fitting domains:    7.1
 
 First step of Coulomb + first step of exchange...
 Exchange contribution is evaluated for MOs 1 to 7.
   1% done.
  12% done.
  23% done.
  34% done.
  45% done.
  56% done.
  67% done.
  79% done.
  90% done.
 100% done.
 Fitting and assembly step of exchange...
 CPU time [min]:     0.397                   Wall time [min]:     0.016
 
 Second step of Coulomb...
   1% done.
  12% done.
  23% done.
  34% done.
  45% done.
  56% done.
  67% done.
  79% done.
  90% done.
 100% done.
 CPU time [min]:     0.906                   Wall time [min]:     0.029
 
 Gradient norm:      1.6037E+00
 RMS of [F,P]:                                         0.00392594391464
 RMS of difference density:                            0.00207730907138
 Gap [au]:  0.61880105
 ALPHA OCC:   7
 BETA  OCC:   7
 
 ***HARTREE-FOCK ENERGY IN STEP   1 IS       -112.4048875892921160 [AU]
 ======================================================================
 ITERATION STEP   2
 CPU time [min]:     0.971                   Wall time [min]:     0.031
 

 SCF control                  : diis
 Damping factor/level shift   : 0.000/0.000
 DIIS [start/end/frequency]   :   2 /*** /  1

 Constructing Fock-matrix...
 
 Pipek-Mezey localization...
 Step  Convergence
   1   0.032043201337
   2   0.019815302199
   3   0.000000264479
 CPU time [min]:     0.997                   Wall time [min]:     0.031
 
 Constructing local fitting domains...
 Maximum number of atoms in fitting domains:   16
 Average number of atoms in fitting domains:    7.7
 
 First step of Coulomb + first step of exchange...
 Exchange contribution is evaluated for MOs 1 to 7.
   1% done.
  12% done.
  23% done.
  34% done.
  45% done.
  56% done.
  67% done.
  79% done.
  90% done.
 100% done.
 Fitting and assembly step of exchange...
 CPU time [min]:     1.568                   Wall time [min]:     0.046
 
 Second step of Coulomb...
   1% done.
  12% done.
  23% done.
  34% done.
  45% done.
  56% done.
  67% done.
  79% done.
  90% done.
 100% done.
 CPU time [min]:     2.079                   Wall time [min]:     0.059
 
 Gradient norm:      1.1631E-01
 DIIS is running in this iteration step.
 RMS of [F,P]:                                         0.00048970031108
 RMS of difference density:                            0.00051785358651
 Gap [au]:  0.56439417
 ALPHA OCC:   7
 BETA  OCC:   7
 
 ***HARTREE-FOCK ENERGY IN STEP   2 IS       -112.6349274918213297 [AU]
 
 Step comparison  Energy Drift [au]  DIIS error drift  Gradient drift
        1            2.3004E-01         3.4362E-03       1.4873E+00
        2            1.1263E+02         1.0000E-07       1.4873E+00
 ======================================================================
 ITERATION STEP   3
 CPU time [min]:     2.147                   Wall time [min]:     0.060
 

 SCF control                  : diis
 Damping factor/level shift   : 0.000/0.000
 DIIS [start/end/frequency]   :   2 /*** /  1

 Constructing Fock-matrix...
 
 Pipek-Mezey localization...
 Step  Convergence
   1   0.573924421372
   2   0.081904026143
   3   0.002519263112
   4   0.000000954533
 CPU time [min]:     2.174                   Wall time [min]:     0.061
 
 Constructing local fitting domains...
 Local fitting domains are unchanged.
 
 First step of Coulomb + first step of exchange...
 Exchange contribution is evaluated for MOs 1 to 7.
   1% done.
  12% done.
  23% done.
  34% done.
  45% done.
  56% done.
  67% done.
  79% done.
  90% done.
 100% done.
 Fitting and assembly step of exchange...
 CPU time [min]:     2.744                   Wall time [min]:     0.075
 
 Second step of Coulomb...
   1% done.
  12% done.
  23% done.
  34% done.
  45% done.
  56% done.
  67% done.
  79% done.
  90% done.
 100% done.
 CPU time [min]:     3.254                   Wall time [min]:     0.088
 
 Gradient norm:      3.2922E-02
 DIIS is running in this iteration step.
 RMS of [F,P]:                                         0.00011623015305
 RMS of difference density:                            0.00012505780442
 Gap [au]:  0.58434177
 ALPHA OCC:   7
 BETA  OCC:   7
 
 ***HARTREE-FOCK ENERGY IN STEP   3 IS       -112.6436857339886473 [AU]
 
 Step comparison  Energy Drift [au]  DIIS error drift  Gradient drift
        2            8.7582E-03         3.7347E-04       8.3392E-02
 ======================================================================
 ITERATION STEP   4
 CPU time [min]:     3.332                   Wall time [min]:     0.090
 

 SCF control                  : diis
 Damping factor/level shift   : 0.000/0.000
 DIIS [start/end/frequency]   :   2 /*** /  1

 Constructing Fock-matrix...
 
 Pipek-Mezey localization...
 Step  Convergence
   1   0.274057652625
   2   0.177330530081
   3   0.017322692464
   4   0.000002848706
   5   0.000000000308
   6   0.000000000000
 CPU time [min]:     3.359                   Wall time [min]:     0.091
 
 Constructing local fitting domains...
 Local fitting domains are unchanged.
 
 First step of Coulomb + first step of exchange...
 Exchange contribution is evaluated for MOs 1 to 7.
   1% done.
  12% done.
[...]
    2   16     0.999996        1    2    3    4    5    6    7    8    9   10   11   12   17   18   19   20
    3    4     0.999995        1    2    3    8
    4   27     0.999991        1    2    3    4    5    6    7    8    9   10   11   12   13   14   15   17   18   19   20   21   22   23   24   25   26   27   28
    5   27     0.999991        1    2    3    4    5    6    7    8    9   10   11   12   14   15   16   17   18   19   20   21   22   23   24   25   26   27   28
 
 Executing the Boughton-Pulay algorithm...
  with occ MO completeness:    0.9850000000
 
   MO  Natoms  Completeness   Atoms
    1    2     0.999928        1    2
    2    3     0.999981        1    2    3
    3    1     0.988242        2
    4    2     0.999928        1    2
    5    2     0.999928        1    2
 CPU time [min]:     0.498                   Wall time [min]:     0.017
 
 Dimensions of the occupied LMO domains:  Minimum / Average / Maximum
 
 Number of atoms in domain:                   4      20.2        27
 Number of atomic orbitals:                  96     494.2       657
 
 Total number of pairs:   10
 Number of distant pairs: 0 (0.0%)
 Sum of multipole based pair energies:      0.0000000000
 
 CPU time [min]:     0.524                   Wall time [min]:     0.018
 Number of strong pairs: 10 (100.0%)
       16.91 MB memory is used for domain independent quantities
 
 Calculating the contribution of occupied LMOs...
    using local fitting domains
 
 MO:     1
 Number of atoms in domain:      28
 Number of atomic orbitals:     680
 Number of atoms for local DF:   28
 Number of fitting functions:  2421 (100.00%)
 Warning: drop high-lying PAOs                     1
 Number of occupied orbitals:     5
 Number of virtual  orbitals:   672
 Number of Cholesky vectors:      8
 MP2 energy in ED [au]:          -0.070182823566
 Number of occupied LNOs:         5 (100.00%)
 Number of virtual  LNOs:        36   (5.36%)
 Number of Cholesky vectors:      5
 MP2 energy in LIS [au]:         -0.070166034276
 Correction for frozen LNO [au]: -0.000016789290     (0.024%)
 Number of NAFs:                 98   (4.05%)
 CPU time [min]:     7.090                   Wall time [min]:     0.232
 

 Direct DF-CCSD(T) calculation
 
 Convergence criterion:  1.0E-05
 
 Number of occupied/virtual/auxiliary orbitals:     5    36    98
     24.31 MB is the minimal memory requirement for (T)
     23.96 MB is the minimal memory requirement for CCSD
 
 MP2 correlation energy [au]:       -0.303785255891
 
 LMP2 domain correlation energy contribution [au]:       -0.070175468712
 
 CPU time [min]:     7.134                   Wall time [min]:     0.233
 
 
 Starting CCSD iterations...
 
                     Residual norm       Correlation Energy
 Iteration  1        0.175620070897       -0.295435234431
 Iteration  2        0.066351269484       -0.306891547578
 Iteration  3        0.024076364969       -0.310439509448
 Iteration  4        0.005643440013       -0.310042563223
 Iteration  5        0.001884781888       -0.310145612806
 Iteration  6        0.000383842200       -0.310155675426
 Iteration  7        0.000078706254       -0.310154739034
 Iteration  8        0.000021805133       -0.310154995090
 
 CCSD iteration has converged in  8 steps.
       30.25 MB memory was utilized by CCSD
 
 T1 diagnostic:      1.987E-02            D1 diagnostic:      4.171E-02
 
 T1 contribution [au]:                         0.000000000000
 CCSD correlation energy [au]:                -0.068789221614
 
 CPU time [min]:     7.207                   Wall time [min]:     0.235
 
 Calculation of (T) correction...
 
 Laplace threshold, nquadmin:  1.00E-03   4
 Number of quadrature points:    4
 
       24.46 MB memory is utilized for (T)

 0%       25%       50%       75%       100%
 |---------|---------|---------|---------| 
 
 (T) correction [au]:                   -0.003119089862
 CCSD(T) correlation energy [au]:       -0.071908311476
 
 CPU time [min]:     7.245                   Wall time [min]:     0.236
 
 MO:     2
 Number of atoms in domain:      28
 Number of atomic orbitals:     680
 Number of atoms for local DF:   28
 Number of fitting functions:  2421 (100.00%)
 Warning: drop high-lying PAOs                     1
 Number of occupied orbitals:     5
 Number of virtual  orbitals:   672
 Number of Cholesky vectors:      8
 MP2 energy in ED [au]:          -0.041418745306
 Number of occupied LNOs:         5 (100.00%)
 Number of virtual  LNOs:        42   (6.25%)
 Number of Cholesky vectors:      5
 MP2 energy in LIS [au]:         -0.041405775856
 Correction for frozen LNO [au]: -0.000012969450     (0.031%)
 Number of NAFs:                111   (4.58%)
 CPU time [min]:    14.540                   Wall time [min]:     0.464
 

 Direct DF-CCSD(T) calculation
 
 Convergence criterion:  1.0E-05
 
 Number of occupied/virtual/auxiliary orbitals:     5    42   111
     28.15 MB is the minimal memory requirement for (T)
     25.36 MB is the minimal memory requirement for CCSD
 
 MP2 correlation energy [au]:       -0.302999516900
 
 LMP2 domain correlation energy contribution [au]:       -0.041391594884
 
 CPU time [min]:    14.585                   Wall time [min]:     0.465
 
 
 Starting CCSD iterations...
 
                     Residual norm       Correlation Energy
 Iteration  1        0.174806998400       -0.294686759757
 Iteration  2        0.066529330115       -0.306151043899
 Iteration  3        0.024177065289       -0.309720457744
 Iteration  4        0.005654608224       -0.309319302247
 Iteration  5        0.001889843547       -0.309417951845
 Iteration  6        0.000394172669       -0.309428723849
 Iteration  7        0.000085085835       -0.309427302254
 Iteration  8        0.000025398909       -0.309427532862
 
 CCSD iteration has converged in  8 steps.
       37.15 MB memory was utilized by CCSD
 
 T1 diagnostic:      2.014E-02            D1 diagnostic:      4.201E-02
 
 T1 contribution [au]:                         0.000000000000
 CCSD correlation energy [au]:                -0.051131111580
 
 CPU time [min]:    14.680                   Wall time [min]:     0.468
 
 Calculation of (T) correction...
 
 Laplace threshold, nquadmin:  1.00E-03   4
 Number of quadrature points:    4
 
       28.42 MB memory is utilized for (T)

 0%       25%       50%       75%       100%
 |---------|---------|---------|---------| 
 
 (T) correction [au]:                   -0.002030236690
 CCSD(T) correlation energy [au]:       -0.053161348271
 
 CPU time [min]:    14.726                   Wall time [min]:     0.469
 
 MO:     3
 Number of atoms in domain:      28
 Number of atomic orbitals:     680
 Number of atoms for local DF:   28
 Number of fitting functions:  2421 (100.00%)
 Warning: drop high-lying PAOs                     1
 Number of occupied orbitals:     5
 Number of virtual  orbitals:   672
 Number of Cholesky vectors:      8
 MP2 energy in ED [au]:          -0.052228824185
 Number of occupied LNOs:         5 (100.00%)
 Number of virtual  LNOs:        35   (5.21%)
 Number of Cholesky vectors:      5
 MP2 energy in LIS [au]:         -0.052216039713
 Correction for frozen LNO [au]: -0.000012784471     (0.024%)
 Number of NAFs:                 95   (3.92%)
 CPU time [min]:    21.174                   Wall time [min]:     0.674
 

 Direct DF-CCSD(T) calculation
 
 Convergence criterion:  1.0E-05
 
 Number of occupied/virtual/auxiliary orbitals:     5    35    95
     23.75 MB is the minimal memory requirement for (T)
     23.74 MB is the minimal memory requirement for CCSD
 
 MP2 correlation energy [au]:       -0.303408046145
 
 LMP2 domain correlation energy contribution [au]:       -0.052223914307
 
 CPU time [min]:    21.217                   Wall time [min]:     0.675
 
 
 Starting CCSD iterations...
 
                     Residual norm       Correlation Energy
 Iteration  1        0.175341834843       -0.295067544862
 Iteration  2        0.066144933709       -0.306495470055
 Iteration  3        0.024019837906       -0.310038857184
 Iteration  4        0.005628836731       -0.309641466672
 Iteration  5        0.001876860620       -0.309742850741
 Iteration  6        0.000386640100       -0.309752684450
 Iteration  7        0.000079723818       -0.309751753397
 
 CCSD iteration has converged in  7 steps.
       29.35 MB memory was utilized by CCSD
 
 T1 diagnostic:      1.982E-02            D1 diagnostic:      4.126E-02
 
 T1 contribution [au]:                         0.000000000000
 CCSD correlation energy [au]:                -0.053077859239
 
 CPU time [min]:    21.280                   Wall time [min]:     0.677
 
 Calculation of (T) correction...
 
 Laplace threshold, nquadmin:  1.00E-03   4
 Number of quadrature points:    4
 
       23.89 MB memory is utilized for (T)

 0%       25%       50%       75%       100%
 |---------|---------|---------|---------| 
 
 (T) correction [au]:                   -0.001646659130
 CCSD(T) correlation energy [au]:       -0.054724518370
 
 CPU time [min]:    21.316                   Wall time [min]:     0.677
 
 MO:     4
 Number of atoms in domain:      28
 Number of atomic orbitals:     680
 Number of atoms for local DF:   28
 Number of fitting functions:  2421 (100.00%)
 Warning: drop high-lying PAOs                     1
 Number of occupied orbitals:     5
 Number of virtual  orbitals:   672
 Number of Cholesky vectors:      8
 MP2 energy in ED [au]:          -0.070182158009
 Number of occupied LNOs:         5 (100.00%)
 Number of virtual  LNOs:        36   (5.36%)
 Number of Cholesky vectors:      5
 MP2 energy in LIS [au]:         -0.070164947664
 Correction for frozen LNO [au]: -0.000017210345     (0.025%)
 Number of NAFs:                 98   (4.05%)
 CPU time [min]:    27.835                   Wall time [min]:     0.888
 

 Direct DF-CCSD(T) calculation
 
 Convergence criterion:  1.0E-05
 
 Number of occupied/virtual/auxiliary orbitals:     5    36    98
     24.31 MB is the minimal memory requirement for (T)
     23.96 MB is the minimal memory requirement for CCSD
 
 MP2 correlation energy [au]:       -0.303803037113
 
 LMP2 domain correlation energy contribution [au]:       -0.070174011034
 
 CPU time [min]:    27.879                   Wall time [min]:     0.889
 
 
 Starting CCSD iterations...
 
                     Residual norm       Correlation Energy
 Iteration  1        0.175637226499       -0.295456456054
 Iteration  2        0.066349226080       -0.306912659966
 Iteration  3        0.024075161187       -0.310459436346
 Iteration  4        0.005644242019       -0.310062932345
 Iteration  5        0.001885109962       -0.310166052021
 Iteration  6        0.000383806225       -0.310176084142
 Iteration  7        0.000078672847       -0.310175148320
 Iteration  8        0.000021774206       -0.310175405886
 
 CCSD iteration has converged in  8 steps.
       30.25 MB memory was utilized by CCSD
 
 T1 diagnostic:      1.987E-02            D1 diagnostic:      4.170E-02
 
 T1 contribution [au]:                         0.000000000000
 CCSD correlation energy [au]:                -0.068787528687
 
 CPU time [min]:    27.950                   Wall time [min]:     0.891
 
 Calculation of (T) correction...
 
 Laplace threshold, nquadmin:  1.00E-03   4
 Number of quadrature points:    4
 
       24.46 MB memory is utilized for (T)

 0%       25%       50%       75%       100%
 |---------|---------|---------|---------| 
 
 (T) correction [au]:                   -0.003119053060
 CCSD(T) correlation energy [au]:       -0.071906581747
 
 CPU time [min]:    27.988                   Wall time [min]:     0.891
 
 MO:     5
 Number of atoms in domain:      28
 Number of atomic orbitals:     680
 Number of atoms for local DF:   28
 Number of fitting functions:  2421 (100.00%)
 Warning: drop high-lying PAOs                     1
 Number of occupied orbitals:     5
 Number of virtual  orbitals:   672
 Number of Cholesky vectors:      8
 MP2 energy in ED [au]:          -0.070182111119
 Number of occupied LNOs:         5 (100.00%)
 Number of virtual  LNOs:        36   (5.36%)
 Number of Cholesky vectors:      5
 MP2 energy in LIS [au]:         -0.070164885016
 Correction for frozen LNO [au]: -0.000017226103     (0.025%)
 Number of NAFs:                 98   (4.05%)
 CPU time [min]:    34.496                   Wall time [min]:     1.098
 

 Direct DF-CCSD(T) calculation
 
 Convergence criterion:  1.0E-05
 
 Number of occupied/virtual/auxiliary orbitals:     5    36    98
     24.31 MB is the minimal memory requirement for (T)
     23.96 MB is the minimal memory requirement for CCSD
 
 MP2 correlation energy [au]:       -0.303803263894
 
 LMP2 domain correlation energy contribution [au]:       -0.070174001379
 
 CPU time [min]:    34.540                   Wall time [min]:     1.099
 
 
 Starting CCSD iterations...
 
                     Residual norm       Correlation Energy
 Iteration  1        0.175637185021       -0.295456050786
 Iteration  2        0.066350904429       -0.306912177588
 Iteration  3        0.024075539412       -0.310459097073
 Iteration  4        0.005644309136       -0.310062552720
 Iteration  5        0.001885122288       -0.310165669498
 Iteration  6        0.000383802833       -0.310175697642
 Iteration  7        0.000078684192       -0.310174761418
 Iteration  8        0.000021782123       -0.310175018872
 
 CCSD iteration has converged in  8 steps.
       30.25 MB memory was utilized by CCSD
 
 T1 diagnostic:      1.987E-02            D1 diagnostic:      4.170E-02
 
 T1 contribution [au]:                         0.000000000000
 CCSD correlation energy [au]:                -0.068787325970
 
 CPU time [min]:    34.610                   Wall time [min]:     1.101
 
 Calculation of (T) correction...
 
 Laplace threshold, nquadmin:  1.00E-03   4
 Number of quadrature points:    4
 
       24.46 MB memory is utilized for (T)

 0%       25%       50%       75%       100%
 |---------|---------|---------|---------| 
 
 (T) correction [au]:                   -0.003119062405
 CCSD(T) correlation energy [au]:       -0.071906388375
 
 CPU time [min]:    34.648                   Wall time [min]:     1.102
 
 **********************************************************************
 Dimensions of the extended domains:    Minimum / Average / Maximum
 
 Number of atoms in domain:                  28      28.0        28
 Number of atomic orbitals:                 680     680.0       680
 Number of fitting functions:              2421    2421.0      2421
 Number of occupied localized MOs:            5       5.0         5
 Number of PAOs:                            672     672.0       672
 Number of occupied LNOs:                     5       5.0         5
 Number of virtual  LNOs:                    35      37.0        42
 Number of NAFs:                             95     100.0       111
 
 **********************************************************************
 Distant (and weak) pair contributions, corrections
 
 Sum of pair energies [au]:                     0.000000000000    (0.000%)
 Sum of energy corrections [au]:               -0.000076979660    (0.025%)
 Pair energies + LNO corrections [au]:         -0.000076979660
 Sum of LMP2 contributions [au]:               -0.304194662185
 
 **********************************************************************
  Time of manipulations in the EDs:      max CPU/Wall [s]  all CPU/Wall [min]
 
 PD construction & multipole pair E      31.31     0.91     0.52     0.02
 Construct MO basis of the ED            15.59     0.39     1.23     0.03
 (mu,nu|P) evaluation & trf 2 (ai|P)     65.17     1.63     5.29     0.13
 Evaluate MP2 energy of the ED            5.49     0.14     0.45     0.01
 Transformations to the LNO basis         8.19     0.21     0.67     0.02
 Build W_PQ (Jai or Jpi part)             1.35     0.03     0.11     0.00
 Evaluate MP2 energy of the LIS           0.10     0.00     0.01     0.00
 (mu,nu|P) evaluation & trf 2 J(abQ)    337.26    11.20    24.84     0.85
 Total of the above for all EDs         433.16    13.60    32.60     1.05
 
 **********************************************************************
 Maximum memory requirement [MB]:       
 
 PD construction & multipole pair E         39.9
 AO integral evaluation in the EDs         313.8
 (mu,nu|P) evaluation & trf 2 (aI|P)       530.9
 Evaluate MP2 energy in the EDs            342.9
 Transformation to the LNO basis            96.1
 (mu,nu|P) to Jab transformation           388.1
 Evaluate MP2 energy in the LIS            185.2
 Minimum requirement for LIS CCSD           25.4
 Actually allocated  for LIS CCSD           37.1
 Minimum requirement for LIS (T)            28.2
 Actually allocated  for LIS (T)            28.4
 
 ======================================================================
 ======================================================================
 
 
 
 ======================================================================
 ======================================================================
 
 Final local CC results:
 
 Minimum number of correlated electrons:        10       (100.0%)
 Maximum number of correlated electrons:        10       (100.0%)
 Average number of correlated electrons:        10.0     (100.0%)
 Minimum number of correlated orbitals:         40       (  4.6%)
 Maximum number of correlated orbitals:         47       (  5.5%)
 Average number of correlated orbitals:         42.0     (  4.9%)
 
 CPU time for integral calculations [min]:                  4.952
 Wall time for integral calculations [min]:                 0.135
 
 CPU time for SCF calculation [min]:                       19.812
 Wall time for SCF calculation [min]:                       0.522
 
 CPU time for orbital localization [min]:                   0.131
 Wall time for orbital localization [min]:                  0.025
 
 CPU time for integral transformations [min]:              33.888
 Wall time for integral transformations [min]:              1.083
 
 Reference energy [au]:                                  -112.753210361644
 
 LMP2 correlation energy [au]:                             -0.304194662185
 Total LMP2 energy [au]:                                 -113.057405023829
 
 Total MP2 correction for dropped NAFs [au]:                0.000021307790
 Total MP2 correction [au]:                                -0.000055671870
 
 CPU time for CCSD calculations [min]:                      0.572
 Total CPU time for CCSD [min]:                            59.354
 Wall time for CCSD calculations [min]:                     0.014
 Total wall time for CCSD [min]:                            1.779
 
 CCSD correlation energy [au]:                             -0.310573047090
 Total CCSD energy [au]:                                 -113.063783408734
 CCSD correlation energy + 0.5 MP2 corrections [au]:       -0.310600883025
 Total LNO-CCSD energy with MP2 corrections [au]:        -113.063811244669
 
 CPU time for (T) corrections [min]:                        0.194
 Total CPU time for CCSD(T) [min]:                         59.549
 Wall time for (T) corrections [min]:                       0.005
 Total wall time for CCSD(T) [min]:                         1.784
 
 Total (T) correlation energy contribution [au]:           -0.013034101148
 Total (T) correlation energy+0.5 MP2 correction [au]:     -0.013061937083
 CCSD(T) correlation energy [au]:                          -0.323607148238
 Total CCSD(T) energy [au]:                              -113.076817509882
 CCSD(T) correlation energy + MP2 corrections [au]:        -0.323662820108
 Total LNO-CCSD(T) energy with MP2 corrections [au]:     -113.076873181752
 
 ======================================================================
 ======================================================================
 
 ************************ 2022-11-14 10:48:37 *************************
                      Normal termination of mrcc.
 **********************************************************************
