 vasp.6.3.0 20Jan22 (build Apr  1 2022 16:44:48) complex                         
 executed on        HPECrayEX_GCC date 2023.05.17  13:44:35
 running  512 mpi-ranks, with    1 threads/rank
 distrk:  each k-point on  256 cores,    2 groups
 distr:  one band on NCORE=   4 cores,   64 groups


--------------------------------------------------------------------------------------------------------


 INCAR:
   SYSTEM = MgO-rocksalt
   ISMEAR = 0
   SIGMA = 0.05
   EDIFF = 1E-6
   ALGO = ALL
   ISTART = 0
   IBRION = -1
   NSW = 0
   ISYM = 2
   ISIF = 2
   EDIFFG = -0.01
   DIPOL = 0.5 0.5 0.5
   IDIPOL = 3
   LDIPOL = .TRUE.
   GGA = RE
   IVDW = 13
   VDW_S8 = 1.7468
   VDW_A1 = 0.5363
   VDW_A2 = 3.0726
   ENCUT = 600
   PREC = Normal
   LASPH = .TRUE.
   LREAL = .FALSE.
   ISPIN = 1
   NELM = 200
   NELMIN = 8
   NCORE = 4
   KPAR = 2
   LWAVE = .FALSE.
   LCHARG = .FALSE.

 POTCAR:    PAW_PBE C 08Apr2002                   
 POTCAR:    PAW_PBE O 08Apr2002                   
 POTCAR:    PAW_PBE Mg_pv 13Apr2007               
 POTCAR:    PAW_PBE O 08Apr2002                   
 POTCAR:    PAW_PBE C 08Apr2002                   
   SHA256 =  253f7b50bb8d59471dbedb8285d89021f4a42ed1a2c5d38a03a736e69125dd95 C/POTCAR              
   COPYR  = (c) Copyright 08Apr2002 Georg Kresse                                                    
   COPYR  = This file is part of the software VASP. Any use, copying, and all other rights are regul
   COPYR  = If you do not have a valid VASP license, you may not use, copy or distribute this file. 
   VRHFIN =C: s2p2                                                                                  
   LEXCH  = PE                                                                                      
   EATOM  =   147.1560 eV,   10.8157 Ry                                                             
                                                                                                    
   TITEL  = PAW_PBE C 08Apr2002                                                                     
   LULTRA =        F    use ultrasoft PP ?                                                          
   IUNSCR =        1    unscreen: 0-lin 1-nonlin 2-no                                               
   RPACOR =    1.200    partial core radius                                                         
   POMASS =   12.011; ZVAL   =    4.000    mass and valenz                                          
   RCORE  =    1.500    outmost cutoff radius                                                       
   RWIGS  =    1.630; RWIGS  =    0.863    wigner-seitz radius (au A)                               
   ENMAX  =  400.000; ENMIN  =  300.000 eV                                                          
   ICORE  =        2    local potential                                                             
   LCOR   =        T    correct aug charges                                                         
   LPAW   =        T    paw PP                                                                      
   EAUG   =  644.873                                                                                
   DEXC   =    0.000                                                                                
   RMAX   =    1.529    core radius for proj-oper                                                   
   RAUG   =    1.300    factor for augmentation sphere                                              
   RDEP   =    1.501    radius for radial grids                                                     
   RDEPT  =    1.300    core radius for aug-charge                                                  
                                                                                                    
   Atomic configuration                                                                             
    4 entries                                                                                       
     n  l   j            E        occ.                                                              
     1  0  0.50      -273.3789   2.0000                                                             
     2  0  0.50       -13.7508   2.0000                                                             
     2  1  0.50        -5.2854   2.0000                                                             
     3  2  1.50        -5.4423   0.0000                                                             
   Description                                                                                      
     l       E           TYP  RCUT    TYP  RCUT                                                     
     0    -13.7508458     23  1.200                                                                 
     0     -8.2022199     23  1.200                                                                 
     1     -5.2854383     23  1.500                                                                 
     1     34.0145650     23  1.500                                                                 
     2     -5.4423304      7  1.500                                                                 
  local pseudopotential read in
  partial core-charges read in
  partial kinetic energy density read in
  atomic valenz-charges read in
  non local Contribution for L=           0  read in
    real space projection operators read in
  non local Contribution for L=           0  read in
    real space projection operators read in
  non local Contribution for L=           1  read in
    real space projection operators read in
  non local Contribution for L=           1  read in
    real space projection operators read in
    PAW grid and wavefunctions read in

   number of l-projection  operators is LMAX  =           4
   number of lm-projection operators is LMMAX =           8

 POTCAR:    PAW_PBE O 08Apr2002                   
   SHA256 =  818f92134a0a090dccd8ba1447fa70422a3b330e708bb4f08108d8ae51209ddf O/POTCAR              
   COPYR  = (c) Copyright 08Apr2002 Georg Kresse                                                    
   COPYR  = This file is part of the software VASP. Any use, copying, and all other rights are regul
   COPYR  = If you do not have a valid VASP license, you may not use, copy or distribute this file. 
   VRHFIN =O: s2p4                                                                                  
   LEXCH  = PE                                                                                      
   EATOM  =   432.3788 eV,   31.7789 Ry                                                             
                                                                                                    
   TITEL  = PAW_PBE O 08Apr2002                                                                     
   LULTRA =        F    use ultrasoft PP ?                                                          
   IUNSCR =        1    unscreen: 0-lin 1-nonlin 2-no                                               
   RPACOR =    1.200    partial core radius                                                         
   POMASS =   16.000; ZVAL   =    6.000    mass and valenz                                          
   RCORE  =    1.520    outmost cutoff radius                                                       
   RWIGS  =    1.550; RWIGS  =    0.820    wigner-seitz radius (au A)                               
   ENMAX  =  400.000; ENMIN  =  300.000 eV                                                          
   ICORE  =        2    local potential                                                             
   LCOR   =        T    correct aug charges                                                         
   LPAW   =        T    paw PP                                                                      
   EAUG   =  605.392                                                                                
   DEXC   =    0.000                                                                                
   RMAX   =    1.553    core radius for proj-oper                                                   
   RAUG   =    1.300    factor for augmentation sphere                                              
   RDEP   =    1.550    radius for radial grids                                                     
   RDEPT  =    1.329    core radius for aug-charge                                                  
                                                                                                    
   Atomic configuration                                                                             
    4 entries                                                                                       
     n  l   j            E        occ.                                                              
     1  0  0.50      -514.6923   2.0000                                                             
     2  0  0.50       -23.9615   2.0000                                                             
     2  1  0.50        -9.0305   4.0000                                                             
     3  2  1.50        -9.5241   0.0000                                                             
   Description                                                                                      
     l       E           TYP  RCUT    TYP  RCUT                                                     
     0    -23.9615318     23  1.200                                                                 
     0     -9.5240782     23  1.200                                                                 
     1     -9.0304911     23  1.520                                                                 
     1      8.1634956     23  1.520                                                                 
     2     -9.5240782      7  1.500                                                                 
  local pseudopotential read in
  partial core-charges read in
  partial kinetic energy density read in
  kinetic energy density of atom read in
  atomic valenz-charges read in
  non local Contribution for L=           0  read in
    real space projection operators read in
  non local Contribution for L=           0  read in
    real space projection operators read in
  non local Contribution for L=           1  read in
    real space projection operators read in
  non local Contribution for L=           1  read in
    real space projection operators read in
    PAW grid and wavefunctions read in

   number of l-projection  operators is LMAX  =           4
   number of lm-projection operators is LMMAX =           8

 POTCAR:    PAW_PBE Mg_pv 13Apr2007               
   SHA256 =  f474ac0dd33840b9ae76c01d57fea79fdf77cdfbb07d5ade72c65f83c709b62b Mg_pv/POTCAR          
   COPYR  = (c) Copyright 13Apr2007 Georg Kresse                                                    
   COPYR  = This file is part of the software VASP. Any use, copying, and all other rights are regul
   COPYR  = If you do not have a valid VASP license, you may not use, copy or distribute this file. 
   VRHFIN =Mg: p6s2                                                                                 
   LEXCH  = PE                                                                                      
   EATOM  =  1056.7344 eV,   77.6678 Ry                                                             
                                                                                                    
   TITEL  = PAW_PBE Mg_pv 13Apr2007                                                                 
   LULTRA =        F    use ultrasoft PP ?                                                          
   IUNSCR =        1    unscreen: 0-lin 1-nonlin 2-no                                               
   RPACOR =    1.500    partial core radius                                                         
   POMASS =   24.305; ZVAL   =    8.000    mass and valenz                                          
   RCORE  =    2.000    outmost cutoff radius                                                       
   RWIGS  =    2.000; RWIGS  =    1.058    wigner-seitz radius (au A)                               
   ENMAX  =  403.929; ENMIN  =  302.947 eV                                                          
   RCLOC  =    1.506    cutoff for local pot                                                        
   LCOR   =        T    correct aug charges                                                         
   LPAW   =        T    paw PP                                                                      
   EAUG   =  758.780                                                                                
   DEXC   =    0.000                                                                                
   RMAX   =    2.045    core radius for proj-oper                                                   
   RAUG   =    1.300    factor for augmentation sphere                                              
   RDEP   =    2.025    radius for radial grids                                                     
   RDEPT  =    1.557    core radius for aug-charge                                                  
                                                                                                    
   Atomic configuration                                                                             
    5 entries                                                                                       
     n  l   j            E        occ.                                                              
     1  0  0.50     -1259.6230   2.0000                                                             
     2  0  0.50       -79.8442   2.0000                                                             
     2  1  1.50       -46.6121   6.0000                                                             
     3  0  0.50        -4.7055   2.0000                                                             
     3  2  1.50        -1.3606   0.0000                                                             
   Description                                                                                      
     l       E           TYP  RCUT    TYP  RCUT                                                     
     1    -46.6121073     23  1.600                                                                 
     1      2.7211652     23  1.600                                                                 
     0     -4.7054661     23  2.000                                                                 
     0     61.2262170     23  2.000                                                                 
     2     -1.3605826     23  2.000                                                                 
  local pseudopotential read in
  partial core-charges read in
  partial kinetic energy density read in
  atomic valenz-charges read in
  non local Contribution for L=           1  read in
    real space projection operators read in
  non local Contribution for L=           1  read in
    real space projection operators read in
  non local Contribution for L=           0  read in
    real space projection operators read in
  non local Contribution for L=           0  read in
    real space projection operators read in
  non local Contribution for L=           2  read in
    real space projection operators read in
    PAW grid and wavefunctions read in

   number of l-projection  operators is LMAX  =           5
   number of lm-projection operators is LMMAX =          13

 POTCAR:    PAW_PBE O 08Apr2002                   
   SHA256 =  818f92134a0a090dccd8ba1447fa70422a3b330e708bb4f08108d8ae51209ddf O/POTCAR              
   COPYR  = (c) Copyright 08Apr2002 Georg Kresse                                                    
   COPYR  = This file is part of the software VASP. Any use, copying, and all other rights are regul
   COPYR  = If you do not have a valid VASP license, you may not use, copy or distribute this file. 
   VRHFIN =O: s2p4                                                                                  
   LEXCH  = PE                                                                                      
   EATOM  =   432.3788 eV,   31.7789 Ry                                                             
                                                                                                    
   TITEL  = PAW_PBE O 08Apr2002                                                                     
   LULTRA =        F    use ultrasoft PP ?                                                          
   IUNSCR =        1    unscreen: 0-lin 1-nonlin 2-no                                               
   RPACOR =    1.200    partial core radius                                                         
   POMASS =   16.000; ZVAL   =    6.000    mass and valenz                                          
   RCORE  =    1.520    outmost cutoff radius                                                       
   RWIGS  =    1.550; RWIGS  =    0.820    wigner-seitz radius (au A)                               
   ENMAX  =  400.000; ENMIN  =  300.000 eV                                                          
   ICORE  =        2    local potential                                                             
   LCOR   =        T    correct aug charges                                                         
   LPAW   =        T    paw PP                                                                      
   EAUG   =  605.392                                                                                
   DEXC   =    0.000                                                                                
   RMAX   =    1.553    core radius for proj-oper                                                   
   RAUG   =    1.300    factor for augmentation sphere                                              
   RDEP   =    1.550    radius for radial grids                                                     
   RDEPT  =    1.329    core radius for aug-charge                                                  
                                                                                                    
   Atomic configuration                                                                             
    4 entries                                                                                       
     n  l   j            E        occ.                                                              
     1  0  0.50      -514.6923   2.0000                                                             
     2  0  0.50       -23.9615   2.0000                                                             
     2  1  0.50        -9.0305   4.0000                                                             
     3  2  1.50        -9.5241   0.0000                                                             
   Description                                                                                      
     l       E           TYP  RCUT    TYP  RCUT                                                     
     0    -23.9615318     23  1.200                                                                 
     0     -9.5240782     23  1.200                                                                 
     1     -9.0304911     23  1.520                                                                 
     1      8.1634956     23  1.520                                                                 
     2     -9.5240782      7  1.500                                                                 
  local pseudopotential read in
  partial core-charges read in
  partial kinetic energy density read in
  kinetic energy density of atom read in
  atomic valenz-charges read in
  non local Contribution for L=           0  read in
    real space projection operators read in
  non local Contribution for L=           0  read in
    real space projection operators read in
  non local Contribution for L=           1  read in
    real space projection operators read in
  non local Contribution for L=           1  read in
    real space projection operators read in
    PAW grid and wavefunctions read in

   number of l-projection  operators is LMAX  =           4
   number of lm-projection operators is LMMAX =           8

 -----------------------------------------------------------------------------
|                                                                             |
|               ----> ADVICE to this user running VASP <----                  |
|                                                                             |
|     You have a (more or less) 'large supercell' and for larger cells it     |
|     might be more efficient to use real-space projection operators.         |
|     Therefore, try LREAL= Auto in the INCAR file.                           |
|     Mind: For very accurate calculation, you might also keep the            |
|     reciprocal projection scheme (i.e. LREAL=.FALSE.).                      |
|                                                                             |
 -----------------------------------------------------------------------------

 -----------------------------------------------------------------------------
|                                                                             |
|               ----> ADVICE to this user running VASP <----                  |
|                                                                             |
|     You enforced a specific xc type in the INCAR file but a different       |
|     type was found in the POTCAR file.                                      |
|     I HOPE YOU KNOW WHAT YOU ARE DOING!                                     |
|                                                                             |
 -----------------------------------------------------------------------------

  PAW_PBE C 08Apr2002                   :
 energy of atom  1       EATOM= -147.1560
 kinetic energy error for atom=    0.0057 (will be added to EATOM!!)
  PAW_PBE O 08Apr2002                   :
 energy of atom  2       EATOM= -432.3788
 kinetic energy error for atom=    0.0168 (will be added to EATOM!!)
  PAW_PBE Mg_pv 13Apr2007               :
 energy of atom  3       EATOM=-1056.7344
 kinetic energy error for atom=    0.0221 (will be added to EATOM!!)
  PAW_PBE O 08Apr2002                   :
 energy of atom  4       EATOM= -432.3788
 kinetic energy error for atom=    0.0168 (will be added to EATOM!!)


 POSCAR:  C  O Mg  O
  positions in direct lattice
  No initial velocities read in
 -----------------------------------------------------------------------------
|                                                                             |
|           W    W    AA    RRRRR   N    N  II  N    N   GGGG   !!!           |
|           W    W   A  A   R    R  NN   N  II  NN   N  G    G  !!!           |
|           W    W  A    A  R    R  N N  N  II  N N  N  G       !!!           |
|           W WW W  AAAAAA  RRRRR   N  N N  II  N  N N  G  GGG   !            |
|           WW  WW  A    A  R   R   N   NN  II  N   NN  G    G                |
|           W    W  A    A  R    R  N    N  II  N    N   GGGG   !!!           |
|                                                                             |
|     Specifying the vdW parameters                                           |
|     VDW_S8 = 1.747                                                          |
|     VDW_A1 = 0.536                                                          |
|     VDW_A2 = 3.073                                                          |
|     in the INCAR file will overwrite the defaults for revpbe. Please        |
|     make sure that is what you intended.                                    |
|                                                                             |
 -----------------------------------------------------------------------------

 exchange correlation table for  LEXCH =       40
   RHO(1)=    0.500       N(1)  =     2000
   RHO(2)=  100.500       N(2)  =     4000



--------------------------------------------------------------------------------------------------------


 ion  position               nearest neighbor table
   1  0.500  0.500  0.762-   2 1.15
   2  0.500  0.500  0.816-   1 1.15
   3  0.000  0.750  0.352-  35 2.11  37 2.11  38 2.11  45 2.11  54 2.11
   4  0.250  0.000  0.352-  36 2.11  37 2.11  38 2.11  46 2.11  53 2.11
   5  0.000  0.000  0.451-  37 2.11  36 2.11  35 2.11  43 2.11  52 2.11  41 2.12
   6  0.250  0.750  0.451-  38 2.11  36 2.11  35 2.11  44 2.11  51 2.11  42 2.12
   7  0.000  0.750  0.550-  49 2.11  42 2.11  58 2.11  41 2.11  35 2.12  39 2.15
   8  0.250  0.000  0.550-  57 2.11  50 2.11  42 2.11  41 2.11  36 2.12  40 2.15
   9  0.000  0.000  0.649-  39 2.11  40 2.11  47 2.11  56 2.11  41 2.11
  10  0.250  0.750  0.649-  42 2.11  40 2.11  39 2.11  48 2.11  55 2.11
  11  0.000  0.250  0.352-  43 2.11  37 2.11  45 2.11  46 2.11  62 2.11
  12  0.250  0.500  0.352-  44 2.11  38 2.11  45 2.11  46 2.11  61 2.11
  13  0.000  0.500  0.451-  45 2.11  43 2.11  44 2.11  35 2.11  60 2.11  49 2.12
  14  0.250  0.250  0.451-  46 2.11  43 2.11  44 2.11  36 2.11  59 2.11  50 2.12
  15  0.000  0.250  0.550-  49 2.11  50 2.11  66 2.11  41 2.11  43 2.12  47 2.15
  16  0.250  0.500  0.550-  65 2.11  50 2.11  42 2.11  49 2.11  44 2.13  48 2.15
  17  0.000  0.500  0.649-  48 2.10  64 2.10  49 2.11  47 2.11  39 2.11
  18  0.250  0.250  0.649-  50 2.11  47 2.11  40 2.11  48 2.11  63 2.11
  19  0.500  0.750  0.352-  51 2.11  38 2.11  53 2.11  54 2.11  61 2.11
  20  0.750  0.000  0.352-  52 2.11  37 2.11  53 2.11  54 2.11  62 2.11
  21  0.500  0.000  0.451-  53 2.11  51 2.11  52 2.11  36 2.11  59 2.11  57 2.12
  22  0.750  0.750  0.451-  54 2.11  51 2.11  52 2.11  35 2.11  60 2.11  58 2.12
  23  0.500  0.750  0.550-  65 2.11  58 2.11  42 2.11  57 2.11  51 2.13  55 2.15
  24  0.750  0.000  0.550-  57 2.11  58 2.11  66 2.11  41 2.11  52 2.12  56 2.15
  25  0.500  0.000  0.649-  55 2.10  63 2.10  57 2.11  40 2.11  56 2.11
  26  0.750  0.750  0.649-  58 2.11  56 2.11  39 2.11  55 2.11  64 2.11
  27  0.500  0.250  0.352-  59 2.11  53 2.11  46 2.11  61 2.11  62 2.11
  28  0.750  0.500  0.352-  60 2.11  54 2.11  45 2.11  61 2.11  62 2.11
  29  0.500  0.500  0.451-  61 2.11  51 2.11  59 2.11  60 2.11  44 2.11  65 2.13
  30  0.750  0.250  0.451-  62 2.11  52 2.11  59 2.11  60 2.11  43 2.11  66 2.12
  31  0.500  0.250  0.550-  65 2.11  50 2.11  66 2.11  57 2.11  59 2.13  63 2.15
  32  0.750  0.500  0.550-  65 2.11  58 2.11  66 2.11  49 2.11  60 2.13  64 2.15
  33  0.500  0.500  0.651-  48 2.12  55 2.12  63 2.12  64 2.12  65 2.14
  34  0.750  0.250  0.649-  66 2.11  56 2.11  47 2.11  64 2.11  63 2.11
  35  0.000  0.750  0.451-   3 2.11   5 2.11   6 2.11  13 2.11  22 2.11   7 2.12
  36  0.250  0.000  0.451-   4 2.11   5 2.11   6 2.11  14 2.11  21 2.11   8 2.12
  37  0.000  0.000  0.352-   5 2.11   4 2.11   3 2.11  11 2.11  20 2.11
  38  0.250  0.750  0.352-   6 2.11   4 2.11   3 2.11  12 2.11  19 2.11
  39  0.000  0.750  0.651-   9 2.11  10 2.11  26 2.11  17 2.11   7 2.15
  40  0.250  0.000  0.651-   9 2.11  10 2.11  18 2.11  25 2.11   8 2.15
  41  0.000  0.000  0.550-   9 2.11   8 2.11   7 2.11  15 2.11  24 2.11   5 2.12
  42  0.250  0.750  0.550-  10 2.11   8 2.11   7 2.11  16 2.11  23 2.11   6 2.12
  43  0.000  0.250  0.451-  11 2.11   5 2.11  13 2.11  14 2.11  30 2.11  15 2.12
  44  0.250  0.500  0.451-  12 2.11   6 2.11  13 2.11  14 2.11  29 2.11  16 2.13
  45  0.000  0.500  0.352-  13 2.11  11 2.11  12 2.11   3 2.11  28 2.11
  46  0.250  0.250  0.352-  14 2.11  11 2.11  12 2.11   4 2.11  27 2.11
  47  0.000  0.250  0.651-   9 2.11  18 2.11  34 2.11  17 2.11  15 2.15
  48  0.249  0.500  0.651-  17 2.10  10 2.11  18 2.11  33 2.12  16 2.15
  49  0.000  0.500  0.550-  17 2.11  15 2.11   7 2.11  16 2.11  32 2.11  13 2.12
  50  0.250  0.250  0.550-  18 2.11  15 2.11   8 2.11  16 2.11  31 2.11  14 2.12
  51  0.500  0.750  0.451-  19 2.11   6 2.11  21 2.11  22 2.11  29 2.11  23 2.13
  52  0.750  0.000  0.451-  20 2.11   5 2.11  21 2.11  22 2.11  30 2.11  24 2.12
  53  0.500  0.000  0.352-  21 2.11  19 2.11  20 2.11   4 2.11  27 2.11
  54  0.750  0.750  0.352-  22 2.11  19 2.11  20 2.11   3 2.11  28 2.11
  55  0.500  0.751  0.651-  25 2.10  10 2.11  26 2.11  33 2.12  23 2.15
  56  0.750  0.000  0.651-   9 2.11  26 2.11  34 2.11  25 2.11  24 2.15
  57  0.500  0.000  0.550-  25 2.11  24 2.11   8 2.11  23 2.11  31 2.11  21 2.12
  58  0.750  0.750  0.550-  26 2.11  24 2.11   7 2.11  32 2.11  23 2.11  22 2.12
  59  0.500  0.250  0.451-  27 2.11  21 2.11  14 2.11  29 2.11  30 2.11  31 2.13
  60  0.750  0.500  0.451-  28 2.11  22 2.11  13 2.11  29 2.11  30 2.11  32 2.13
  61  0.500  0.500  0.352-  29 2.11  19 2.11  27 2.11  28 2.11  12 2.11
  62  0.750  0.250  0.352-  30 2.11  20 2.11  27 2.11  28 2.11  11 2.11
  63  0.500  0.249  0.651-  25 2.10  18 2.11  34 2.11  33 2.12  31 2.15
  64  0.751  0.500  0.651-  17 2.10  26 2.11  34 2.11  33 2.12  32 2.15
  65  0.500  0.500  0.550-  16 2.11  23 2.11  31 2.11  32 2.11  29 2.13  33 2.14
  66  0.750  0.250  0.550-  34 2.11  24 2.11  15 2.11  32 2.11  31 2.11  30 2.12

  LATTYP: Found a simple tetragonal cell.
 ALAT       =     8.4409846542
 C/A-ratio  =     2.5270438657
  
  Lattice vectors:
  
 A1 = (   8.4409846542,   0.0000000000,   0.0000000000)
 A2 = (   0.0000000000,   8.4409846542,   0.0000000000)
 A3 = (   0.0000000000,   0.0000000000,  21.3307384906)


Analysis of symmetry for initial positions (statically):
=====================================================================
 Subroutine PRICEL returns:
 Original cell was already a primitive cell.
 

 Routine SETGRP: Setting up the symmetry group for a 
 simple tetragonal supercell.


 Subroutine GETGRP returns: Found  8 space group operations
 (whereof  8 operations were pure point group operations)
 out of a pool of 16 trial point group operations.


The static configuration has the point symmetry C_4v.


Analysis of symmetry for dynamics (positions and initial velocities):
=====================================================================
 Subroutine PRICEL returns:
 Original cell was already a primitive cell.
 

 Routine SETGRP: Setting up the symmetry group for a 
 simple tetragonal supercell.


 Subroutine GETGRP returns: Found  8 space group operations
 (whereof  8 operations were pure point group operations)
 out of a pool of 16 trial point group operations.


The dynamic configuration has the point symmetry C_4v.


 Subroutine INISYM returns: Found  8 space group operations
 (whereof  8 operations are pure point group operations),
 and found     1 'primitive' translations


----------------------------------------------------------------------------------------

                                     Primitive cell                                     

  volume of cell :    1519.8199

  direct lattice vectors                    reciprocal lattice vectors
     8.440984654  0.000000000  0.000000000     0.118469591  0.000000000  0.000000000
     0.000000000  8.440984654  0.000000000     0.000000000  0.118469591  0.000000000
     0.000000000  0.000000000 21.330738491     0.000000000  0.000000000  0.046880702

  length of vectors
     8.440984654  8.440984654 21.330738491     0.118469591  0.118469591  0.046880702

  position of ions in fractional coordinates (direct lattice)
     0.500000000  0.500000000  0.762193032
     0.500000000  0.500000000  0.815956750
     0.000000000  0.750000000  0.351605267
     0.250000000  0.000000000  0.351605267
     0.000000000  0.000000000  0.450535089
     0.250000000  0.750000000  0.450535089
     0.000000000  0.749939268  0.550083239
     0.250060732  0.000000000  0.550083239
     0.000000000  0.000000000  0.648745309
     0.249858327  0.750141673  0.648569547
     0.000000000  0.250000000  0.351605267
     0.250000000  0.500000000  0.351605267
     0.000000000  0.500000000  0.450535089
     0.250000000  0.250000000  0.450535089
     0.000000000  0.250060732  0.550083239
     0.250378379  0.500000000  0.550219524
     0.000000000  0.500000000  0.648615280
     0.249858327  0.249858327  0.648569547
     0.500000000  0.750000000  0.351605267
     0.750000000  0.000000000  0.351605267
     0.500000000  0.000000000  0.450535089
     0.750000000  0.750000000  0.450535089
     0.500000000  0.749621621  0.550219524
     0.749939268  0.000000000  0.550083239
     0.500000000  0.000000000  0.648615280
     0.750141673  0.750141673  0.648569547
     0.500000000  0.250000000  0.351605267
     0.750000000  0.500000000  0.351605267
     0.500000000  0.500000000  0.450535089
     0.750000000  0.250000000  0.450535089
     0.500000000  0.250378379  0.550219524
     0.749621621  0.500000000  0.550219524
     0.500000000  0.500000000  0.650616960
     0.750141673  0.249858327  0.648569547
     0.000000000  0.750000000  0.450535089
     0.250000000  0.000000000  0.450535089
     0.000000000  0.000000000  0.351605267
     0.250000000  0.750000000  0.351605267
     0.000000000  0.750218533  0.650979255
     0.249781467  0.000000000  0.650979255
     0.000000000  0.000000000  0.549809890
     0.249945770  0.750054230  0.549859113
     0.000000000  0.250000000  0.450535089
     0.250000000  0.500000000  0.450535089
     0.000000000  0.500000000  0.351605267
     0.250000000  0.250000000  0.351605267
     0.000000000  0.249781467  0.650979255
     0.248822710  0.500000000  0.650882872
     0.000000000  0.500000000  0.549762666
     0.249945770  0.249945770  0.549859113
     0.500000000  0.750000000  0.450535089
     0.750000000  0.000000000  0.450535089
     0.500000000  0.000000000  0.351605267
     0.750000000  0.750000000  0.351605267
     0.500000000  0.751177290  0.650882872
     0.750218533  0.000000000  0.650979255
     0.500000000  0.000000000  0.549762666
     0.750054230  0.750054230  0.549859113
     0.500000000  0.250000000  0.450535089
     0.750000000  0.500000000  0.450535089
     0.500000000  0.500000000  0.351605267
     0.750000000  0.250000000  0.351605267
     0.500000000  0.248822710  0.650882872
     0.751177290  0.500000000  0.650882872
     0.500000000  0.500000000  0.550231357
     0.750054230  0.249945770  0.549859113

  ion indices of the primitive-cell ions
   primitive index   ion index
                 1           1
                 2           2
                 3           3
                 4           4
                 5           5
                 6           6
                 7           7
                 8           8
                 9           9
                10          10
                11          11
                12          12
                13          13
                14          14
                15          15
                16          16
                17          17
                18          18
                19          19
                20          20
                21          21
                22          22
                23          23
                24          24
                25          25
                26          26
                27          27
                28          28
                29          29
                30          30
                31          31
                32          32
                33          33
                34          34
                35          35
                36          36
                37          37
                38          38
                39          39
                40          40
                41          41
                42          42
                43          43
                44          44
                45          45
                46          46
                47          47
                48          48
                49          49
                50          50
                51          51
                52          52
                53          53
                54          54
                55          55
                56          56
                57          57
                58          58
                59          59
                60          60
                61          61
                62          62
                63          63
                64          64
                65          65
                66          66

----------------------------------------------------------------------------------------



 KPOINTS: pymatgen v2020.8.13 with grid density = 

Automatic generation of k-mesh.
 Grid dimensions read from file:
 generate k-points for:    2    2    1

 Generating k-lattice:

  Cartesian coordinates                     Fractional coordinates (reciprocal lattice)
     0.059234796  0.000000000  0.000000000     0.500000000  0.000000000  0.000000000
     0.000000000  0.059234796  0.000000000     0.000000000  0.500000000  0.000000000
     0.000000000  0.000000000  0.046880702     0.000000000  0.000000000  1.000000000

  Length of vectors
     0.059234796  0.059234796  0.046880702

  Shift w.r.t. Gamma in fractional coordinates (k-lattice)
     0.000000000  0.000000000  0.000000000

 
 Subroutine IBZKPT returns following result:
 ===========================================
 
 Found      3 irreducible k-points:
 
 Following reciprocal coordinates:
            Coordinates               Weight
  0.000000  0.000000  0.000000      1.000000
  0.500000  0.000000  0.000000      2.000000
  0.500000  0.500000  0.000000      1.000000
 
 Following cartesian coordinates:
            Coordinates               Weight
  0.000000  0.000000  0.000000      1.000000
  0.059235  0.000000  0.000000      2.000000
  0.059235  0.059235  0.000000      1.000000
 


--------------------------------------------------------------------------------------------------------




 Dimension of arrays:
   k-points           NKPTS =      3   k-points in BZ     NKDIM =      3   number of bands    NBANDS=    320
   number of dos      NEDOS =    301   number of ions     NIONS =     66
   non local maximal  LDIM  =      5   non local SUM 2l+1 LMDIM =     13
   total plane-waves  NPLWV = 373248
   max r-space proj   IRMAX =      1   max aug-charges    IRDMAX=   5039
   dimension x,y,z NGX =    54 NGY =   54 NGZ =  128
   dimension x,y,z NGXF=   108 NGYF=  108 NGZF=  256
   support grid    NGXF=   108 NGYF=  108 NGZF=  256
   ions per type =               1   1  32  32
   NGX,Y,Z   is equivalent  to a cutoff of  10.64, 10.64,  9.98 a.u.
   NGXF,Y,Z  is equivalent  to a cutoff of  21.27, 21.27, 19.95 a.u.

 SYSTEM =  MgO-rocksalt                            
 POSCAR =   C  O Mg  O                             

 Startparameter for this run:
   NWRITE =      2    write-flag & timer
   PREC   = normal    normal or accurate (medium, high low for compatibility)
   ISTART =      0    job   : 0-new  1-cont  2-samecut
   ICHARG =      2    charge: 1-file 2-atom 10-const
   ISPIN  =      1    spin polarized calculation?
   LNONCOLLINEAR =      F non collinear calculations
   LSORBIT =      F    spin-orbit coupling
   INIWAV =      1    electr: 0-lowe 1-rand  2-diag
   LASPH  =      T    aspherical Exc in radial PAW
 Electronic Relaxation 1
   ENCUT  =  600.0 eV  44.10 Ry    6.64 a.u.  16.86 16.86 42.60*2*pi/ulx,y,z
   ENINI  =  600.0     initial cutoff
   ENAUG  =  758.8 eV  augmentation charge cutoff
   NELM   =    200;   NELMIN=  8; NELMDL= -5     # of ELM steps 
   EDIFF  = 0.1E-05   stopping-criterion for ELM
   LREAL  =      F    real-space projection
   NLSPLINE    = F    spline interpolate recip. space projectors
   LCOMPAT=      F    compatible to vasp.4.4
   GGA_COMPAT  = T    GGA compatible to vasp.4.4-vasp.4.6
   LMAXPAW     = -100 max onsite density
   LMAXMIX     =    2 max onsite mixed and CHGCAR
   VOSKOWN=      0    Vosko Wilk Nusair interpolation
   ROPT   =    0.00000   0.00000   0.00000   0.00000
 Ionic relaxation
   EDIFFG = -.1E-01   stopping-criterion for IOM
   NSW    =      0    number of steps for IOM
   NBLOCK =      1;   KBLOCK =      1    inner block; outer block 
   IBRION =     -1    ionic relax: 0-MD 1-quasi-New 2-CG
   NFREE  =      0    steps in history (QN), initial steepest desc. (CG)
   ISIF   =      2    stress and relaxation
   IWAVPR =     10    prediction:  0-non 1-charg 2-wave 3-comb
   ISYM   =      2    0-nonsym 1-usesym 2-fastsym
   LCORR  =      T    Harris-Foulkes like correction to forces

   POTIM  = 0.5000    time-step for ionic-motion
   TEIN   =    0.0    initial temperature
   TEBEG  =    0.0;   TEEND  =   0.0 temperature during run
   SMASS  =  -3.00    Nose mass-parameter (am)
   estimated Nose-frequenzy (Omega)   =  0.10E-29 period in steps = 0.13E+47 mass=  -0.163E-26a.u.
   SCALEE = 1.0000    scale energy and forces
   NPACO  =    256;   APACO  = 10.0  distance and # of slots for P.C.
   PSTRESS=    0.0 pullay stress

  Mass of Ions in am
   POMASS =  12.01 16.00 24.30 16.00
  Ionic Valenz
   ZVAL   =   4.00  6.00  8.00  6.00
  Atomic Wigner-Seitz radii
   RWIGS  =  -1.00 -1.00 -1.00 -1.00
  virtual crystal weights 
   VCA    =   1.00  1.00  1.00  1.00
   NELECT =     458.0000    total number of electrons
   NUPDOWN=      -1.0000    fix difference up-down

 DOS related values:
   EMIN   =  10.00;   EMAX   =-10.00  energy-range for DOS
   EFERMI =   0.00
   ISMEAR =     0;   SIGMA  =   0.05  broadening in eV -4-tet -1-fermi 0-gaus

 Electronic relaxation 2 (details)
   IALGO  =     58    algorithm
   LDIAG  =      T    sub-space diagonalisation (order eigenvalues)
   LSUBROT=      F    optimize rotation matrix (better conditioning)
   TURBO    =      0    0=normal 1=particle mesh
   IRESTART =      0    0=no restart 2=restart with 2 vectors
   NREBOOT  =      0    no. of reboots
   NMIN     =      0    reboot dimension
   EREF     =   0.00    reference energy to select bands
   IMIX   =      4    mixing-type and parameters
     AMIX     =   0.40;   BMIX     =  1.00
     AMIX_MAG =   1.60;   BMIX_MAG =  1.00
     AMIN     =   0.10
     WC   =   100.;   INIMIX=   1;  MIXPRE=   1;  MAXMIX= -45

 Intra band minimization:
   WEIMIN = 0.0000     energy-eigenvalue tresh-hold
   EBREAK =  0.78E-09  absolut break condition
   DEPER  =   0.30     relativ break condition  

   TIME   =   0.40     timestep for ELM

  volume/ion in A,a.u.               =      23.03       155.40
  Fermi-wavevector in a.u.,A,eV,Ry     =   1.097571  2.074108 16.390423  1.204662
  Thomas-Fermi vector in A             =   2.233933

 Write flags
   LWAVE        =      F    write WAVECAR
   LDOWNSAMPLE  =      F    k-point downsampling of WAVECAR
   LCHARG       =      F    write CHGCAR
   LVTOT        =      F    write LOCPOT, total local potential
   LVHAR        =      F    write LOCPOT, Hartree potential only
   LELF         =      F    write electronic localiz. function (ELF)
   LORBIT       =      0    0 simple, 1 ext, 2 COOP (PROOUT), +10 PAW based schemes


 Dipole corrections
   LMONO  =      F    monopole corrections only (constant potential shift)
   LDIPOL =      T    correct potential (dipole corrections)
   IDIPOL =      3    1-x, 2-y, 3-z, 4-all directions 
   EPSILON=  1.0000000 bulk dielectric constant

 Exchange correlation treatment:
   GGA     =    RE    GGA type
   LEXCH   =    40    internal setting for exchange type
   LIBXC   =     F    Libxc                    
   VOSKOWN =     0    Vosko Wilk Nusair interpolation
   LHFCALC =     F    Hartree Fock is set to
   LHFONE  =     F    Hartree Fock one center treatment
   AEXX    =    0.0000 exact exchange contribution

 Linear response parameters
   LEPSILON=     F    determine dielectric tensor
   LRPA    =     F    only Hartree local field effects (RPA)
   LNABLA  =     F    use nabla operator in PAW spheres
   LVEL    =     F    velocity operator in full k-point grid
   CSHIFT  =0.1000    complex shift for real part using Kramers Kronig
   OMEGAMAX=  -1.0    maximum frequency
   DEG_THRESHOLD= 0.2000000E-02 threshold for treating states as degnerate
   RTIME   =   -0.100 relaxation time in fs
  (WPLASMAI=    0.000 imaginary part of plasma frequency in eV, 0.658/RTIME)
   DFIELD  = 0.0000000 0.0000000 0.0000000 field for delta impulse in time

  Optional k-point grid parameters
   LKPOINTS_OPT  =     F    use optional k-point grid
   KPOINTS_OPT_MODE=     1    mode for optional k-point grid

 Orbital magnetization related:
   ORBITALMAG=     F  switch on orbital magnetization
   LCHIMAG   =     F  perturbation theory with respect to B field
   DQ        =  0.001000  dq finite difference perturbation B field
   LLRAUG    =     F  two centre corrections for induced B field



--------------------------------------------------------------------------------------------------------


 Static calculation
 charge density and potential will be updated during run
 non-spin polarized calculation
 Conjugate gradient for all bands (Freysoldt, et al. PRB 79, 241103 (2009))
 preconditioned conjugated gradient                                        
 perform sub-space diagonalisation
    before iterative eigenvector-optimisation
 modified Broyden-mixing scheme, WC =      100.0
 initial mixing is a Kerker type mixing with AMIX =  0.4000 and BMIX =      1.0000
 Hartree-type preconditioning will be used
 using additional bands           91
 reciprocal scheme for non local part
 use partial core corrections
 no Harris-corrections to forces 
 use gradient corrections 
 use of overlap-Matrix (Vanderbilt PP)
 Gauss-broadening in eV      SIGMA  =   0.05


--------------------------------------------------------------------------------------------------------


  energy-cutoff  :      600.00
  volume of cell :     1519.82
      direct lattice vectors                 reciprocal lattice vectors
     8.440984654  0.000000000  0.000000000     0.118469591  0.000000000  0.000000000
     0.000000000  8.440984654  0.000000000     0.000000000  0.118469591  0.000000000
     0.000000000  0.000000000 21.330738491     0.000000000  0.000000000  0.046880702

  length of vectors
     8.440984654  8.440984654 21.330738491     0.118469591  0.118469591  0.046880702



 k-points in units of 2pi/SCALE and weight: pymatgen v2020.8.13 with grid density = 
   0.00000000  0.00000000  0.00000000       0.250
   0.05923480  0.00000000  0.00000000       0.500
   0.05923480  0.05923480  0.00000000       0.250

 k-points in reciprocal lattice and weights: pymatgen v2020.8.13 with grid density = 
   0.00000000  0.00000000  0.00000000       0.250
   0.50000000  0.00000000  0.00000000       0.500
   0.50000000  0.50000000  0.00000000       0.250

 position of ions in fractional coordinates (direct lattice) 
   0.50000000  0.50000000  0.76219303
   0.50000000  0.50000000  0.81595675
   0.00000000  0.75000000  0.35160527
   0.25000000  0.00000000  0.35160527
   0.00000000  0.00000000  0.45053509
   0.25000000  0.75000000  0.45053509
   0.00000000  0.74993927  0.55008324
   0.25006073  0.00000000  0.55008324
   0.00000000  0.00000000  0.64874531
   0.24985833  0.75014167  0.64856955
   0.00000000  0.25000000  0.35160527
   0.25000000  0.50000000  0.35160527
   0.00000000  0.50000000  0.45053509
   0.25000000  0.25000000  0.45053509
   0.00000000  0.25006073  0.55008324
   0.25037838  0.50000000  0.55021952
   0.00000000  0.50000000  0.64861528
   0.24985833  0.24985833  0.64856955
   0.50000000  0.75000000  0.35160527
   0.75000000  0.00000000  0.35160527
   0.50000000  0.00000000  0.45053509
   0.75000000  0.75000000  0.45053509
   0.50000000  0.74962162  0.55021952
   0.74993927  0.00000000  0.55008324
   0.50000000  0.00000000  0.64861528
   0.75014167  0.75014167  0.64856955
   0.50000000  0.25000000  0.35160527
   0.75000000  0.50000000  0.35160527
   0.50000000  0.50000000  0.45053509
   0.75000000  0.25000000  0.45053509
   0.50000000  0.25037838  0.55021952
   0.74962162  0.50000000  0.55021952
   0.50000000  0.50000000  0.65061696
   0.75014167  0.24985833  0.64856955
   0.00000000  0.75000000  0.45053509
   0.25000000  0.00000000  0.45053509
   0.00000000  0.00000000  0.35160527
   0.25000000  0.75000000  0.35160527
   0.00000000  0.75021853  0.65097926
   0.24978147  0.00000000  0.65097926
   0.00000000  0.00000000  0.54980989
   0.24994577  0.75005423  0.54985911
   0.00000000  0.25000000  0.45053509
   0.25000000  0.50000000  0.45053509
   0.00000000  0.50000000  0.35160527
   0.25000000  0.25000000  0.35160527
   0.00000000  0.24978147  0.65097926
   0.24882271  0.50000000  0.65088287
   0.00000000  0.50000000  0.54976267
   0.24994577  0.24994577  0.54985911
   0.50000000  0.75000000  0.45053509
   0.75000000  0.00000000  0.45053509
   0.50000000  0.00000000  0.35160527
   0.75000000  0.75000000  0.35160527
   0.50000000  0.75117729  0.65088287
   0.75021853  0.00000000  0.65097926
   0.50000000  0.00000000  0.54976267
   0.75005423  0.75005423  0.54985911
   0.50000000  0.25000000  0.45053509
   0.75000000  0.50000000  0.45053509
   0.50000000  0.50000000  0.35160527
   0.75000000  0.25000000  0.35160527
   0.50000000  0.24882271  0.65088287
   0.75117729  0.50000000  0.65088287
   0.50000000  0.50000000  0.55023136
   0.75005423  0.24994577  0.54985911

 position of ions in cartesian coordinates  (Angst):
   4.22049233  4.22049233 16.25814023
   4.22049233  4.22049233 17.40496005
   0.00000000  6.33073849  7.50000000
   2.11024616  0.00000000  7.50000000
   0.00000000  0.00000000  9.61024616
   2.11024616  6.33073849  9.61024616
   0.00000000  6.33022585 11.73368172
   2.11075880  0.00000000 11.73368172
   0.00000000  0.00000000 13.83821654
   2.10905031  6.33193435 13.83446740
   0.00000000  2.11024616  7.50000000
   2.11024616  4.22049233  7.50000000
   0.00000000  4.22049233  9.61024616
   2.11024616  2.11024616  9.61024616
   0.00000000  2.11075880 11.73368172
   2.11344006  4.22049233 11.73658877
   0.00000000  4.22049233 13.83544293
   2.10905031  2.10905031 13.83446740
   4.22049233  6.33073849  7.50000000
   6.33073849  0.00000000  7.50000000
   4.22049233  0.00000000  9.61024616
   6.33073849  6.33073849  9.61024616
   4.22049233  6.32754460 11.73658877
   6.33022585  0.00000000 11.73368172
   4.22049233  0.00000000 13.83544293
   6.33193435  6.33193435 13.83446740
   4.22049233  2.11024616  7.50000000
   6.33073849  4.22049233  7.50000000
   4.22049233  4.22049233  9.61024616
   6.33073849  2.11024616  9.61024616
   4.22049233  2.11344006 11.73658877
   6.32754460  4.22049233 11.73658877
   4.22049233  4.22049233 13.87814023
   6.33193435  2.10905031 13.83446740
   0.00000000  6.33073849  9.61024616
   2.11024616  0.00000000  9.61024616
   0.00000000  0.00000000  7.50000000
   2.11024616  6.33073849  7.50000000
   0.00000000  6.33258312 13.88586825
   2.10840153  0.00000000 13.88586825
   0.00000000  0.00000000 11.72785099
   2.10978841  6.33119624 11.72890095
   0.00000000  2.11024616  9.61024616
   2.11024616  4.22049233  9.61024616
   0.00000000  4.22049233  7.50000000
   2.11024616  2.11024616  7.50000000
   0.00000000  2.10840153 13.88586825
   2.10030867  4.22049233 13.88381232
   0.00000000  4.22049233 11.72684365
   2.10978841  2.10978841 11.72890095
   4.22049233  6.33073849  9.61024616
   6.33073849  0.00000000  9.61024616
   4.22049233  0.00000000  7.50000000
   6.33073849  6.33073849  7.50000000
   4.22049233  6.34067598 13.88381232
   6.33258312  0.00000000 13.88586825
   4.22049233  0.00000000 11.72684365
   6.33119624  6.33119624 11.72890095
   4.22049233  2.11024616  9.61024616
   6.33073849  4.22049233  9.61024616
   4.22049233  4.22049233  7.50000000
   6.33073849  2.11024616  7.50000000
   4.22049233  2.10030867 13.88381232
   6.34067598  4.22049233 13.88381232
   4.22049233  4.22049233 11.73684118
   6.33119624  2.10978841 11.72890095



--------------------------------------------------------------------------------------------------------


 k-point   1 :   0.0000 0.0000 0.0000  plane waves:   50745
 k-point   2 :   0.5000 0.0000 0.0000  plane waves:   50798
 k-point   3 :   0.5000 0.5000 0.0000  plane waves:   50752

 maximum and minimum number of plane-waves per node :     12720    12632

 maximum number of plane-waves:     50798
 maximum index in each direction: 
   IXMAX=   16   IYMAX=   16   IZMAX=   42
   IXMIN=  -17   IYMIN=  -17   IZMIN=  -42


 parallel 3D FFT for wavefunctions:
    minimum data exchange during FFTs selected (reduces bandwidth)
 parallel 3D FFT for charge:
    minimum data exchange during FFTs selected (reduces bandwidth)


 total amount of memory used by VASP MPI-rank0    78528. kBytes
=======================================================================

   base      :      30000. kBytes
   nonl-proj :      29343. kBytes
   fftplans  :       3857. kBytes
   grid      :       5885. kBytes
   one-center:        137. kBytes
   wavefun   :       9306. kBytes

     INWAV:  cpu time      0.0000: real time      0.0000
 Broyden mixing: mesh for mixing (old mesh)
   NGX = 33   NGY = 33   NGZ = 85
  (NGX  =108   NGY  =108   NGZ  =256)
  gives a total of  92565 points

 initial charge density was supplied:
 charge density of overlapping atoms calculated
 number of electron     458.0000000 magnetization 
 keeping initial charge density in first step


--------------------------------------------------------------------------------------------------------


 Maximum index for augmentation-charges          334 (set IRDMAX)


--------------------------------------------------------------------------------------------------------


 First call to EWALD:  gamma=   0.154
 Maximum number of real-space cells 4x 4x 2
 Maximum number of reciprocal cells 2x 2x 5

    FEWALD:  cpu time      0.0031: real time      0.0031


--------------------------------------- Iteration      1(   1)  ---------------------------------------


    POTLOK:  cpu time      0.0432: real time      0.0442
    SETDIJ:  cpu time      0.1622: real time      0.1623
    TRIAL :  cpu time      5.3761: real time      5.4676
    CORREC:  cpu time      0.0012: real time      0.0012
    --------------------------------------------
      LOOP:  cpu time      5.5846: real time      5.7098

 eigenvalue-minimisations  :  2304
 total energy-change (2. order) : 0.4174317E+04  (-0.3066841E+05)
 number of electron     458.0000000 magnetization 
 augmentation part      458.0000000 magnetization 

 DIPCOR: dipole corrections for dipol
 direction  3 min pos     1,
 dipolmoment           0.000000      0.000000     -0.000235 electrons x Angstroem
 Tr[quadrupol]     -6318.707259

 energy correction for charged system         0.000000 eV
 dipol+quadrupol energy correction           -0.000000 eV
 added-field ion interaction          0.001886 eV  (added to PSCEN)


 Free energy of the ion-electron system (eV)
  ---------------------------------------------------
  alpha Z        PSCENC =       907.96599038
  Ewald energy   TEWEN  =    137285.62460683
  -Hartree energ DENC   =   -173384.04980340
  -exchange      EXHF   =         0.00000000
  -V(xc)+E(xc)   XCENC  =      1766.64490303
  PAW double counting   =     32340.89285313   -36127.75492224
  entropy T*S    EENTRO =        -0.02829772
  eigenvalues    EBANDS =     -6811.55376700
  atomic energy  EATOM  =     48196.57542979
  ---------------------------------------------------
  free energy    TOTEN  =      4174.31699279 eV

  energy without entropy =     4174.34529052  energy(sigma->0) =     4174.33114166


--------------------------------------------------------------------------------------------------------




--------------------------------------- Iteration      1(   2)  ---------------------------------------


    TRIAL :  cpu time      2.2660: real time      2.2662
    CORREC:  cpu time      0.0003: real time      0.0003
    --------------------------------------------
      LOOP:  cpu time      2.2712: real time      2.2808

 eigenvalue-minimisations  :  2304
 total energy-change (2. order) :-0.4289739E+04  (-0.4216116E+04)
 number of electron     458.0000000 magnetization 
 augmentation part      458.0000000 magnetization 

 DIPCOR: dipole corrections for dipol
 direction  3 min pos     1,
 dipolmoment           0.000000      0.000000     -0.000235 electrons x Angstroem
 Tr[quadrupol]     -6318.707259

 energy correction for charged system         0.000000 eV
 dipol+quadrupol energy correction           -0.000000 eV
 added-field ion interaction          0.001886 eV  (added to PSCEN)


 Free energy of the ion-electron system (eV)
  ---------------------------------------------------
  alpha Z        PSCENC =       907.96599038
  Ewald energy   TEWEN  =    137285.62460683
  -Hartree energ DENC   =   -173384.04980340
  -exchange      EXHF   =         0.00000000
  -V(xc)+E(xc)   XCENC  =      1766.64490303
  PAW double counting   =     32340.89285313   -36127.75492224
  entropy T*S    EENTRO =        -0.00000000
  eigenvalues    EBANDS =    -11101.32143196
  atomic energy  EATOM  =     48196.57542979
  ---------------------------------------------------
  free energy    TOTEN  =      -115.42237445 eV

  energy without entropy =     -115.42237445  energy(sigma->0) =     -115.42237445


--------------------------------------------------------------------------------------------------------




--------------------------------------- Iteration      1(   3)  ---------------------------------------


    TRIAL :  cpu time      2.3803: real time      2.3805
    CORREC:  cpu time      0.0003: real time      0.0003
    --------------------------------------------
      LOOP:  cpu time      2.3852: real time      2.3948

 eigenvalue-minimisations  :  2304
 total energy-change (2. order) :-0.3106893E+03  (-0.3086484E+03)
 number of electron     458.0000000 magnetization 
 augmentation part      458.0000000 magnetization 

 DIPCOR: dipole corrections for dipol
 direction  3 min pos     1,
 dipolmoment           0.000000      0.000000     -0.000235 electrons x Angstroem
 Tr[quadrupol]     -6318.707259

 energy correction for charged system         0.000000 eV
 dipol+quadrupol energy correction           -0.000000 eV
 added-field ion interaction          0.001886 eV  (added to PSCEN)


 Free energy of the ion-electron system (eV)
  ---------------------------------------------------
  alpha Z        PSCENC =       907.96599038
  Ewald energy   TEWEN  =    137285.62460683
  -Hartree energ DENC   =   -173384.04980340
  -exchange      EXHF   =         0.00000000
  -V(xc)+E(xc)   XCENC  =      1766.64490303
  PAW double counting   =     32340.89285313   -36127.75492224
  entropy T*S    EENTRO =        -0.00000000
  eigenvalues    EBANDS =    -11412.01073653
  atomic energy  EATOM  =     48196.57542979
  ---------------------------------------------------
  free energy    TOTEN  =      -426.11167901 eV

  energy without entropy =     -426.11167901  energy(sigma->0) =     -426.11167901


--------------------------------------------------------------------------------------------------------




--------------------------------------- Iteration      1(   4)  ---------------------------------------


    TRIAL :  cpu time      2.3827: real time      2.3829
    CORREC:  cpu time      0.0003: real time      0.0003
    --------------------------------------------
      LOOP:  cpu time      2.3973: real time      2.3976

 eigenvalue-minimisations  :  2368
 total energy-change (2. order) :-0.5964414E+01  (-0.5957460E+01)
 number of electron     458.0000000 magnetization 
 augmentation part      458.0000000 magnetization 

 DIPCOR: dipole corrections for dipol
 direction  3 min pos     1,
 dipolmoment           0.000000      0.000000     -0.000235 electrons x Angstroem
 Tr[quadrupol]     -6318.707259

 energy correction for charged system         0.000000 eV
 dipol+quadrupol energy correction           -0.000000 eV
 added-field ion interaction          0.001886 eV  (added to PSCEN)


 Free energy of the ion-electron system (eV)
  ---------------------------------------------------
  alpha Z        PSCENC =       907.96599038
  Ewald energy   TEWEN  =    137285.62460683
  -Hartree energ DENC   =   -173384.04980340
  -exchange      EXHF   =         0.00000000
  -V(xc)+E(xc)   XCENC  =      1766.64490303
  PAW double counting   =     32340.89285313   -36127.75492224
  entropy T*S    EENTRO =        -0.00000000
  eigenvalues    EBANDS =    -11417.97515060
  atomic energy  EATOM  =     48196.57542979
  ---------------------------------------------------
  free energy    TOTEN  =      -432.07609309 eV

  energy without entropy =     -432.07609309  energy(sigma->0) =     -432.07609309


--------------------------------------------------------------------------------------------------------




--------------------------------------- Iteration      1(   5)  ---------------------------------------


    TRIAL :  cpu time      2.3975: real time      2.3980
    CORREC:  cpu time      0.0008: real time      0.0008
    CHARGE:  cpu time      0.0759: real time      0.0766
    --------------------------------------------
      LOOP:  cpu time      2.4804: real time      2.4898

 eigenvalue-minimisations  :  2304
 total energy-change (2. order) :-0.7709387E-01  (-0.7709137E-01)
 number of electron     457.9999363 magnetization 
 augmentation part      159.7007937 magnetization 

 DIPCOR: dipole corrections for dipol
 direction  3 min pos     1,
 dipolmoment           0.000000      0.000000     -0.000235 electrons x Angstroem
 Tr[quadrupol]     -6318.707259

 energy correction for charged system         0.000000 eV
 dipol+quadrupol energy correction           -0.000000 eV
 added-field ion interaction          0.001886 eV  (added to PSCEN)


 Free energy of the ion-electron system (eV)
  ---------------------------------------------------
  alpha Z        PSCENC =       907.96599038
  Ewald energy   TEWEN  =    137285.62460683
  -Hartree energ DENC   =   -173384.04980340
  -exchange      EXHF   =         0.00000000
  -V(xc)+E(xc)   XCENC  =      1766.64490303
  PAW double counting   =     32340.89285313   -36127.75492224
  entropy T*S    EENTRO =        -0.00000000
  eigenvalues    EBANDS =    -11418.05224447
  atomic energy  EATOM  =     48196.57542979
  ---------------------------------------------------
  free energy    TOTEN  =      -432.15318696 eV

  energy without entropy =     -432.15318696  energy(sigma->0) =     -432.15318696


--------------------------------------------------------------------------------------------------------




--------------------------------------- Iteration      1(   6)  ---------------------------------------


    POTLOK:  cpu time      0.0338: real time      0.0338
    SETDIJ:  cpu time      0.1871: real time      0.1871
    TRIAL :  cpu time      0.6769: real time      0.6773
    CORREC:  cpu time      0.5330: real time      0.5332
    CHARGE:  cpu time      0.0552: real time      0.0552
    --------------------------------------------
      LOOP:  cpu time      1.4994: real time      1.5003

 eigenvalue-minimisations  :     0
 total energy-change (2. order) : 0.1727615E+03  (-0.9557838E+02)
 number of electron     457.9999255 magnetization 
 augmentation part      156.7866817 magnetization 

 DIPCOR: dipole corrections for dipol
 direction  3 min pos     1,
 dipolmoment           0.000000      0.000000      0.174967 electrons x Angstroem
 Tr[quadrupol]     -6356.272507

 energy correction for charged system         0.000000 eV
 dipol+quadrupol energy correction           -0.001822 eV
 added-field ion interaction         -1.404027 eV  (added to PSCEN)


 Free energy of the ion-electron system (eV)
  ---------------------------------------------------
  alpha Z        PSCENC =       904.64221984
  Ewald energy   TEWEN  =    137285.62460683
  -Hartree energ DENC   =   -177275.88049448
  -exchange      EXHF   =         0.00000000
  -V(xc)+E(xc)   XCENC  =      1890.22429024
  PAW double counting   =     37147.81102363   -40894.05764015
  entropy T*S    EENTRO =        -0.00000000
  eigenvalues    EBANDS =     -7514.33115174
  atomic energy  EATOM  =     48196.57542979
  ---------------------------------------------------
  free energy    TOTEN  =      -259.39171604 eV

  energy without entropy =     -259.39171604  energy(sigma->0) =     -259.39171604


--------------------------------------------------------------------------------------------------------




--------------------------------------- Iteration      1(   7)  ---------------------------------------


    POTLOK:  cpu time      0.0293: real time      0.0293
    SETDIJ:  cpu time      0.1891: real time      0.1891
    TRIAL :  cpu time      0.6029: real time      0.6029
    CORREC:  cpu time      0.5154: real time      0.5154
    CHARGE:  cpu time      0.0553: real time      0.0553
    --------------------------------------------
      LOOP:  cpu time      1.3964: real time      1.4060

 eigenvalue-minimisations  :     0
 total energy-change (2. order) :-0.9594663E+02  (-0.6726624E+01)
 number of electron     457.9999246 magnetization 
 augmentation part      154.9254276 magnetization 

 DIPCOR: dipole corrections for dipol
 direction  3 min pos     1,
 dipolmoment           0.000000      0.000000      0.160120 electrons x Angstroem
 Tr[quadrupol]     -6361.183422

 energy correction for charged system         0.000000 eV
 dipol+quadrupol energy correction           -0.001526 eV
 added-field ion interaction         -1.284886 eV  (added to PSCEN)


 Free energy of the ion-electron system (eV)
  ---------------------------------------------------
  alpha Z        PSCENC =       906.33924035
  Ewald energy   TEWEN  =    137285.62460683
  -Hartree energ DENC   =   -175435.74025556
  -exchange      EXHF   =         0.00000000
  -V(xc)+E(xc)   XCENC  =      1823.52170546
  PAW double counting   =     36038.31411082   -39854.09880276
  entropy T*S    EENTRO =        -0.00000000
  eigenvalues    EBANDS =     -9315.87438504
  atomic energy  EATOM  =     48196.57542979
  ---------------------------------------------------
  free energy    TOTEN  =      -355.33835011 eV

  energy without entropy =     -355.33835011  energy(sigma->0) =     -355.33835011


--------------------------------------------------------------------------------------------------------




--------------------------------------- Iteration      1(   8)  ---------------------------------------


    POTLOK:  cpu time      0.0292: real time      0.0292
    SETDIJ:  cpu time      0.1881: real time      0.1881
    TRIAL :  cpu time      0.6053: real time      0.6054
    CORREC:  cpu time      0.5181: real time      0.5182
    CHARGE:  cpu time      0.0557: real time      0.0557
    --------------------------------------------
      LOOP:  cpu time      1.4107: real time      1.4111

 eigenvalue-minimisations  :     0
 total energy-change (2. order) :-0.6741349E+01  (-0.4180217E+01)
 number of electron     457.9999229 magnetization 
 augmentation part      155.0354381 magnetization 

 DIPCOR: dipole corrections for dipol
 direction  3 min pos     1,
 dipolmoment           0.000000      0.000000      0.119664 electrons x Angstroem
 Tr[quadrupol]     -6359.314435

 energy correction for charged system         0.000000 eV
 dipol+quadrupol energy correction           -0.000852 eV
 added-field ion interaction         -0.960246 eV  (added to PSCEN)


 Free energy of the ion-electron system (eV)
  ---------------------------------------------------
  alpha Z        PSCENC =       906.78918254
  Ewald energy   TEWEN  =    137285.62460683
  -Hartree energ DENC   =   -175324.11215761
  -exchange      EXHF   =         0.00000000
  -V(xc)+E(xc)   XCENC  =      1814.10712207
  PAW double counting   =     35925.09258340   -39671.21240784
  entropy T*S    EENTRO =        -0.00000000
  eigenvalues    EBANDS =     -9494.94405802
  atomic energy  EATOM  =     48196.57542979
  ---------------------------------------------------
  free energy    TOTEN  =      -362.07969884 eV

  energy without entropy =     -362.07969884  energy(sigma->0) =     -362.07969884


--------------------------------------------------------------------------------------------------------




--------------------------------------- Iteration      1(   9)  ---------------------------------------


    POTLOK:  cpu time      0.0303: real time      0.0303
    SETDIJ:  cpu time      0.1873: real time      0.1873
    TRIAL :  cpu time      0.6043: real time      0.6044
    CORREC:  cpu time      0.5184: real time      0.5184
    CHARGE:  cpu time      0.0553: real time      0.0553
    --------------------------------------------
      LOOP:  cpu time      1.4015: real time      1.4101

 eigenvalue-minimisations  :     0
 total energy-change (2. order) :-0.4098321E+01  (-0.1696675E+01)
 number of electron     457.9999229 magnetization 
 augmentation part      155.0565206 magnetization 

 DIPCOR: dipole corrections for dipol
 direction  3 min pos     1,
 dipolmoment           0.000000      0.000000      0.169200 electrons x Angstroem
 Tr[quadrupol]     -6351.965361

 energy correction for charged system         0.000000 eV
 dipol+quadrupol energy correction           -0.001704 eV
 added-field ion interaction         -1.357751 eV  (added to PSCEN)


 Free energy of the ion-electron system (eV)
  ---------------------------------------------------
  alpha Z        PSCENC =       907.07240750
  Ewald energy   TEWEN  =    137285.62460683
  -Hartree energ DENC   =   -175189.01475469
  -exchange      EXHF   =         0.00000000
  -V(xc)+E(xc)   XCENC  =      1813.57560082
  PAW double counting   =     35838.91930010   -39620.24680067
  entropy T*S    EENTRO =        -0.00000000
  eigenvalues    EBANDS =     -9598.68380954
  atomic energy  EATOM  =     48196.57542979
  ---------------------------------------------------
  free energy    TOTEN  =      -366.17801985 eV

  energy without entropy =     -366.17801985  energy(sigma->0) =     -366.17801985


--------------------------------------------------------------------------------------------------------




--------------------------------------- Iteration      1(  10)  ---------------------------------------


    POTLOK:  cpu time      0.0291: real time      0.0291
    SETDIJ:  cpu time      0.1898: real time      0.1898
    TRIAL :  cpu time      0.6051: real time      0.6051
    CORREC:  cpu time      0.5170: real time      0.5170
    CHARGE:  cpu time      0.0552: real time      0.0552
    --------------------------------------------
      LOOP:  cpu time      1.4102: real time      1.4108

 eigenvalue-minimisations  :     0
 total energy-change (2. order) :-0.1710944E+01  (-0.5874861E+00)
 number of electron     457.9999235 magnetization 
 augmentation part      155.0165756 magnetization 

 DIPCOR: dipole corrections for dipol
 direction  3 min pos     1,
 dipolmoment           0.000000      0.000000      0.185253 electrons x Angstroem
 Tr[quadrupol]     -6350.775668

 energy correction for charged system         0.000000 eV
 dipol+quadrupol energy correction           -0.002043 eV
 added-field ion interaction         -1.486567 eV  (added to PSCEN)


 Free energy of the ion-electron system (eV)
  ---------------------------------------------------
  alpha Z        PSCENC =       906.67770237
  Ewald energy   TEWEN  =    137285.62460683
  -Hartree energ DENC   =   -175008.92080318
  -exchange      EXHF   =         0.00000000
  -V(xc)+E(xc)   XCENC  =      1811.90110130
  PAW double counting   =     35725.84920122   -39515.44240153
  entropy T*S    EENTRO =        -0.00000000
  eigenvalues    EBANDS =     -9770.15380079
  atomic energy  EATOM  =     48196.57542979
  ---------------------------------------------------
  free energy    TOTEN  =      -367.88896399 eV

  energy without entropy =     -367.88896399  energy(sigma->0) =     -367.88896399


--------------------------------------------------------------------------------------------------------




--------------------------------------- Iteration      1(  11)  ---------------------------------------


    POTLOK:  cpu time      0.0292: real time      0.0292
    SETDIJ:  cpu time      0.1880: real time      0.1880
    TRIAL :  cpu time      0.6053: real time      0.6053
    CORREC:  cpu time      0.5216: real time      0.5220
    CHARGE:  cpu time      0.0562: real time      0.0563
    --------------------------------------------
      LOOP:  cpu time      1.4062: real time      1.4150

 eigenvalue-minimisations  :     0
 total energy-change (2. order) :-0.5887661E+00  (-0.2135932E+00)
 number of electron     457.9999240 magnetization 
 augmentation part      155.1090670 magnetization 

 DIPCOR: dipole corrections for dipol
 direction  3 min pos     1,
 dipolmoment           0.000000      0.000000      0.160390 electrons x Angstroem
 Tr[quadrupol]     -6351.643147

 energy correction for charged system         0.000000 eV
 dipol+quadrupol energy correction           -0.001531 eV
 added-field ion interaction         -1.287055 eV  (added to PSCEN)


 Free energy of the ion-electron system (eV)
  ---------------------------------------------------
  alpha Z        PSCENC =       906.50289420
  Ewald energy   TEWEN  =    137285.62460683
  -Hartree energ DENC   =   -174943.25927958
  -exchange      EXHF   =         0.00000000
  -V(xc)+E(xc)   XCENC  =      1810.89059753
  PAW double counting   =     35664.68309770   -39446.40756123
  entropy T*S    EENTRO =        -0.00000000
  eigenvalues    EBANDS =     -9843.08751539
  atomic energy  EATOM  =     48196.57542979
  ---------------------------------------------------
  free energy    TOTEN  =      -368.47773014 eV

  energy without entropy =     -368.47773014  energy(sigma->0) =     -368.47773014


--------------------------------------------------------------------------------------------------------




--------------------------------------- Iteration      1(  12)  ---------------------------------------


    POTLOK:  cpu time      0.0300: real time      0.0300
    SETDIJ:  cpu time      0.1874: real time      0.1874
    TRIAL :  cpu time      0.6043: real time      0.6043
    CORREC:  cpu time      0.5182: real time      0.5182
    CHARGE:  cpu time      0.0554: real time      0.0554
    --------------------------------------------
      LOOP:  cpu time      1.4006: real time      1.4097

 eigenvalue-minimisations  :     0
 total energy-change (2. order) :-0.2135838E+00  (-0.7418187E-01)
 number of electron     457.9999241 magnetization 
 augmentation part      155.2114912 magnetization 

 DIPCOR: dipole corrections for dipol
 direction  3 min pos     1,
 dipolmoment           0.000000      0.000000      0.144514 electrons x Angstroem
 Tr[quadrupol]     -6352.388373

 energy correction for charged system         0.000000 eV
 dipol+quadrupol energy correction           -0.001243 eV
 added-field ion interaction         -1.159653 eV  (added to PSCEN)


 Free energy of the ion-electron system (eV)
  ---------------------------------------------------
  alpha Z        PSCENC =       906.67286740
  Ewald energy   TEWEN  =    137285.62460683
  -Hartree energ DENC   =   -174968.78891612
  -exchange      EXHF   =         0.00000000
  -V(xc)+E(xc)   XCENC  =      1811.13360880
  PAW double counting   =     35651.19932102   -39431.08199100
  entropy T*S    EENTRO =        -0.00000000
  eigenvalues    EBANDS =     -9820.02624064
  atomic energy  EATOM  =     48196.57542979
  ---------------------------------------------------
  free energy    TOTEN  =      -368.69131392 eV

  energy without entropy =     -368.69131392  energy(sigma->0) =     -368.69131392


--------------------------------------------------------------------------------------------------------




--------------------------------------- Iteration      1(  13)  ---------------------------------------


    POTLOK:  cpu time      0.0293: real time      0.0293
    SETDIJ:  cpu time      0.1880: real time      0.1880
    TRIAL :  cpu time      0.6037: real time      0.6037
    CORREC:  cpu time      0.5172: real time      0.5172
    CHARGE:  cpu time      0.0549: real time      0.0550
    --------------------------------------------
      LOOP:  cpu time      1.3980: real time      1.4075

 eigenvalue-minimisations  :     0
 total energy-change (2. order) :-0.7420615E-01  (-0.3254622E-01)
 number of electron     457.9999241 magnetization 
 augmentation part      155.2457973 magnetization 

 DIPCOR: dipole corrections for dipol
 direction  3 min pos     1,
 dipolmoment           0.000000      0.000000      0.139618 electrons x Angstroem
 Tr[quadrupol]     -6352.808971

 energy correction for charged system         0.000000 eV
 dipol+quadrupol energy correction           -0.001160 eV
 added-field ion interaction         -1.120368 eV  (added to PSCEN)


 Free energy of the ion-electron system (eV)
  ---------------------------------------------------
  alpha Z        PSCENC =       906.80854906
  Ewald energy   TEWEN  =    137285.62460683
  -Hartree energ DENC   =   -174999.05461983
  -exchange      EXHF   =         0.00000000
  -V(xc)+E(xc)   XCENC  =      1811.43557380
  PAW double counting   =     35651.08036604   -39433.84903006
  entropy T*S    EENTRO =        -0.00000000
  eigenvalues    EBANDS =     -9787.38639572
  atomic energy  EATOM  =     48196.57542979
  ---------------------------------------------------
  free energy    TOTEN  =      -368.76552007 eV

  energy without entropy =     -368.76552007  energy(sigma->0) =     -368.76552007


--------------------------------------------------------------------------------------------------------




--------------------------------------- Iteration      1(  14)  ---------------------------------------


    POTLOK:  cpu time      0.0291: real time      0.0291
    SETDIJ:  cpu time      0.1885: real time      0.1885
    TRIAL :  cpu time      0.6036: real time      0.6036
    CORREC:  cpu time      0.5175: real time      0.5176
    CHARGE:  cpu time      0.0555: real time      0.0555
    --------------------------------------------
      LOOP:  cpu time      1.3990: real time      1.4084

 eigenvalue-minimisations  :     0
 total energy-change (2. order) :-0.3257783E-01  (-0.1521706E-01)
 number of electron     457.9999240 magnetization 
 augmentation part      155.2304238 magnetization 

 DIPCOR: dipole corrections for dipol
 direction  3 min pos     1,
 dipolmoment           0.000000      0.000000      0.138374 electrons x Angstroem
 Tr[quadrupol]     -6353.128396

 energy correction for charged system         0.000000 eV
 dipol+quadrupol energy correction           -0.001140 eV
 added-field ion interaction         -1.110381 eV  (added to PSCEN)


 Free energy of the ion-electron system (eV)
  ---------------------------------------------------
  alpha Z        PSCENC =       906.84754162
  Ewald energy   TEWEN  =    137285.62460683
  -Hartree energ DENC   =   -175012.25562825
  -exchange      EXHF   =         0.00000000
  -V(xc)+E(xc)   XCENC  =      1811.44302547
  PAW double counting   =     35651.50652839   -39435.86736191
  entropy T*S    EENTRO =        -0.00000000
  eigenvalues    EBANDS =     -9772.67223984
  atomic energy  EATOM  =     48196.57542979
  ---------------------------------------------------
  free energy    TOTEN  =      -368.79809790 eV

  energy without entropy =     -368.79809790  energy(sigma->0) =     -368.79809790


--------------------------------------------------------------------------------------------------------




--------------------------------------- Iteration      1(  15)  ---------------------------------------


    POTLOK:  cpu time      0.0291: real time      0.0291
    SETDIJ:  cpu time      0.1883: real time      0.1884
    TRIAL :  cpu time      0.6046: real time      0.6046
    CORREC:  cpu time      0.5168: real time      0.5168
[...]
    273       7.6170      0.00000
    274       7.6171      0.00000
    275       7.7081      0.00000
    276       8.0008      0.00000
    277       8.0008      0.00000
    278       8.0148      0.00000
    279       8.0455      0.00000
    280       8.1620      0.00000
    281       8.1621      0.00000
    282       8.1691      0.00000
    283       8.1707      0.00000
    284       8.1823      0.00000
    285       8.1853      0.00000
    286       8.1916      0.00000
    287       8.1917      0.00000
    288       8.4583      0.00000
    289       8.4584      0.00000
    290       8.4600      0.00000
    291       8.6281      0.00000
    292       8.6752      0.00000
    293       8.6827      0.00000
    294       8.6962      0.00000
    295       8.7397      0.00000
    296       8.7445      0.00000
    297       8.7533      0.00000
    298       8.7591      0.00000
    299       8.7617      0.00000
    300       8.9878      0.00000
    301       9.0844      0.00000
    302       9.0854      0.00000
    303       9.0879      0.00000
    304       9.1954      0.00000
    305       9.3782      0.00000
    306       9.4498      0.00000
    307       9.4901      0.00000
    308       9.5286      0.00000
    309       9.6308      0.00000
    310       9.6633      0.00000
    311       9.7224      0.00000
    312       9.9440      0.00000
    313      10.0104      0.00000
    314      10.0465      0.00000
    315      10.0546      0.00000
    316      10.0648      0.00000
    317      10.4836      0.00000
    318      10.5119      0.00000
    319      10.5876      0.00000
    320      10.5940      0.00000


--------------------------------------------------------------------------------------------------------


 soft charge-density along one line, spin component           1
         0         1         2         3         4         5         6         7         8         9
 total charge-density along one line

 pseudopotential strength for first ion, spin component:           1
 10.252  13.635   0.000   0.037   0.000  -0.000  -0.105  -0.000
 13.635  18.134   0.000   0.049   0.000  -0.000  -0.139  -0.000
  0.000   0.000  -4.278  -0.000  -0.000   8.364   0.000   0.000
  0.037   0.049  -0.000  -4.336   0.000   0.000   8.460  -0.000
  0.000   0.000  -0.000   0.000  -4.278   0.000  -0.000   8.364
 -0.000  -0.000   8.364   0.000   0.000 -18.483  -0.000  -0.000
 -0.105  -0.139   0.000   8.460  -0.000  -0.000 -18.640  -0.000
 -0.000  -0.000   0.000  -0.000   8.364  -0.000  -0.000 -18.483
 total augmentation occupancy for first ion, spin component:           1
  7.835  -3.579   0.000   2.008  -0.000   0.000   0.379   0.000
 -3.579   1.993   0.000  -1.540   0.000   0.000  -0.232   0.000
  0.000   0.000   0.848   0.000   0.000   0.063   0.000  -0.000
  2.008  -1.540   0.000   2.248  -0.000   0.000   0.217   0.000
 -0.000   0.000   0.000  -0.000   0.848   0.000   0.000   0.063
  0.000   0.000   0.063   0.000   0.000   0.005   0.000   0.000
  0.379  -0.232   0.000   0.217   0.000   0.000   0.030   0.000
  0.000   0.000  -0.000   0.000   0.063   0.000   0.000   0.005


------------------------ aborting loop because EDIFF is reached ----------------------------------------


    FORLOC:  cpu time      0.0041: real time      0.0041
    FORNL :  cpu time      0.4198: real time      0.4201
    STRESS:  cpu time      1.3535: real time      1.3536
    FORCOR:  cpu time      0.0272: real time      0.0272
    OFIELD:  cpu time      0.0001: real time      0.0001
    FORVDW:  cpu time      7.9393: real time      8.1573

  FORCE on cell =-STRESS in cart. coord.  units (eV):
  Direction    XX          YY          ZZ          XY          YZ          ZX
  --------------------------------------------------------------------------------------
  Alpha Z   907.96410   907.96410   907.96410
  Ewald  157785.69189157785.69189************     0.00000     0.00000    -0.00000
  Hartree168208.16119168208.16119************    -0.00000    -0.00000    -0.00000
  E(xc)   -2509.95579 -2509.95579 -2516.40140     0.00000     0.00000     0.00000
  Local  ************************335573.62996    -0.00000     0.00000    -0.00000
  n-local -2812.97913 -2813.74858 -2844.31870    -0.00000     0.00000     0.00000
  augment  1052.73964  1052.73964  1042.61541     0.00000     0.00000    -0.00000
  Kinetic  7501.21045  7503.68219  7523.18277     0.00000     0.00000    -0.00002
  Fock        0.00000     0.00000     0.00000     0.00000     0.00000     0.00000
  vdW       -21.68736   -21.68738   -16.64176     0.00000    -0.00000    -0.00000
  -------------------------------------------------------------------------------------
  Total     -25.94794   -25.94794    -1.47896     0.00000     0.00000    -0.00000
  in kB     -27.35403   -27.35403    -1.55910     0.00000     0.00000    -0.00000
  external pressure =      -18.76 kB  Pullay stress =        0.00 kB


 VOLUME and BASIS-vectors are now :
 -----------------------------------------------------------------------------
  energy-cutoff  :      600.00
  volume of cell :     1519.82
      direct lattice vectors                 reciprocal lattice vectors
     8.440984654  0.000000000  0.000000000     0.118469591  0.000000000  0.000000000
     0.000000000  8.440984654  0.000000000     0.000000000  0.118469591  0.000000000
     0.000000000  0.000000000 21.330738491     0.000000000  0.000000000  0.046880702

  length of vectors
     8.440984654  8.440984654 21.330738491     0.118469591  0.118469591  0.046880702


 FORCES acting on ions:
    Electron-Ion                     Ewald-Force                    Non-Local-Force
 -----------------------------------------------------------------------------------------------
   0.977E-13 0.148E-12 -.851E+03   -.102E-13 -.133E-14 0.824E+03   0.000E+00 0.000E+00 0.266E+02
   0.413E-12 0.102E-11 -.147E+04   -.711E-14 -.511E-14 0.153E+04   0.000E+00 -.662E-23 -.596E+02
   -.316E-13 -.135E+00 0.208E+04   0.560E-13 0.135E+00 -.207E+04   0.000E+00 -.183E-03 -.716E+01
   0.135E+00 -.707E-12 0.208E+04   -.135E+00 0.671E-13 -.207E+04   0.183E-03 0.662E-23 -.716E+01
   -.534E-13 -.259E-12 0.714E+03   -.150E-10 0.150E-10 -.714E+03   -.265E-22 0.000E+00 0.501E+00
   0.513E+00 -.513E+00 0.715E+03   -.509E+00 0.509E+00 -.715E+03   -.271E-02 0.271E-02 0.529E+00
   -.691E-13 -.296E+01 -.642E+03   0.157E-11 0.294E+01 0.642E+03   -.132E-22 0.130E-01 -.160E+00
   0.296E+01 -.182E-12 -.642E+03   -.294E+01 -.151E-11 0.642E+03   -.130E-01 0.000E+00 -.160E+00
   -.209E-13 -.657E-12 -.200E+04   0.444E-12 -.416E-12 0.200E+04   0.000E+00 0.265E-22 0.608E+01
   0.188E+02 -.188E+02 -.198E+04   -.190E+02 0.190E+02 0.198E+04   0.100E+00 -.100E+00 0.618E+01
   -.239E-13 0.135E+00 0.208E+04   -.277E-12 -.135E+00 -.207E+04   -.132E-22 0.183E-03 -.716E+01
   0.132E+00 -.943E-13 0.208E+04   -.130E+00 0.131E-10 -.207E+04   -.166E-02 0.265E-22 -.716E+01
   -.646E-13 0.801E-12 0.715E+03   -.165E-10 0.000E+00 -.715E+03   0.265E-22 0.000E+00 0.466E+00
   0.513E+00 0.513E+00 0.715E+03   -.509E+00 -.509E+00 -.715E+03   -.271E-02 -.271E-02 0.529E+00
   -.627E-13 0.296E+01 -.642E+03   0.304E-11 -.294E+01 0.642E+03   0.529E-22 -.130E-01 -.160E+00
   0.443E+01 0.113E-11 -.635E+03   -.435E+01 0.178E-14 0.635E+03   -.807E-01 -.265E-22 -.255E+00
   -.104E-13 0.569E-12 -.199E+04   -.355E-13 -.995E-13 0.198E+04   0.000E+00 0.000E+00 0.609E+01
   0.188E+02 0.188E+02 -.198E+04   -.190E+02 -.190E+02 0.198E+04   0.100E+00 0.100E+00 0.618E+01
   0.893E-12 -.132E+00 0.208E+04   -.129E-10 0.130E+00 -.207E+04   0.265E-22 0.166E-02 -.716E+01
   -.135E+00 -.689E-12 0.208E+04   0.135E+00 0.471E-13 -.207E+04   -.183E-03 0.132E-22 -.716E+01
   0.832E-12 -.168E-12 0.715E+03   0.145E-11 0.150E-10 -.715E+03   0.000E+00 0.000E+00 0.466E+00
   -.513E+00 -.513E+00 0.715E+03   0.509E+00 0.509E+00 -.715E+03   0.271E-02 0.271E-02 0.529E+00
   0.830E-12 -.443E+01 -.635E+03   -.141E-11 0.435E+01 0.635E+03   0.397E-22 0.807E-01 -.255E+00
   -.296E+01 -.242E-12 -.642E+03   0.294E+01 -.156E-11 0.642E+03   0.130E-01 -.265E-22 -.160E+00
   0.900E-12 0.350E-12 -.199E+04   0.782E-13 -.355E-14 0.198E+04   0.331E-22 0.331E-23 0.609E+01
   -.188E+02 -.188E+02 -.198E+04   0.190E+02 0.190E+02 0.198E+04   -.100E+00 -.100E+00 0.618E+01
   0.887E-12 0.132E+00 0.208E+04   -.131E-10 -.130E+00 -.207E+04   0.281E-22 -.166E-02 -.716E+01
   -.132E+00 -.593E-12 0.208E+04   0.130E+00 0.131E-10 -.207E+04   0.166E-02 -.265E-22 -.716E+01
   0.878E-12 0.251E-11 0.715E+03   -.782E-13 0.355E-14 -.716E+03   0.662E-23 0.000E+00 0.596E+00
   -.513E+00 0.513E+00 0.715E+03   0.509E+00 -.509E+00 -.715E+03   0.271E-02 -.271E-02 0.529E+00
   0.814E-12 0.443E+01 -.635E+03   -.284E-13 -.435E+01 0.635E+03   0.000E+00 -.807E-01 -.255E+00
   -.443E+01 -.160E-11 -.635E+03   0.435E+01 0.000E+00 0.635E+03   0.807E-01 -.513E-22 -.255E+00
   0.930E-12 0.256E-12 -.191E+04   -.426E-13 -.391E-13 0.190E+04   0.000E+00 0.165E-23 0.360E+01
   -.188E+02 0.188E+02 -.198E+04   0.190E+02 -.190E+02 0.198E+04   -.100E+00 0.100E+00 0.618E+01
   -.772E-13 -.428E+00 0.535E+03   0.409E-13 0.424E+00 -.535E+03   0.662E-23 0.654E-02 -.910E-01
   0.428E+00 0.455E-13 0.535E+03   -.424E+00 0.391E-13 -.535E+03   -.654E-02 0.000E+00 -.910E-01
   -.563E-13 -.202E-13 0.156E+04   0.853E-11 -.844E-11 -.156E+04   0.000E+00 0.000E+00 0.341E+01
   0.994E-01 -.994E-01 0.156E+04   -.986E-01 0.986E-01 -.156E+04   -.109E-02 0.109E-02 0.341E+01
   -.486E-13 -.755E+01 -.152E+04   -.871E-12 0.749E+01 0.153E+04   0.132E-22 0.519E-01 -.496E+01
   0.755E+01 -.162E-12 -.152E+04   -.749E+01 0.881E-12 0.153E+04   -.519E-01 0.000E+00 -.496E+01
   -.583E-13 0.370E-13 -.478E+03   -.853E-13 0.639E-13 0.478E+03   0.000E+00 -.265E-22 0.254E+00
   0.272E+01 -.272E+01 -.473E+03   -.271E+01 0.271E+01 0.472E+03   -.535E-02 0.535E-02 0.326E+00
   -.584E-13 0.428E+00 0.535E+03   0.142E-13 -.424E+00 -.535E+03   -.265E-22 -.654E-02 -.910E-01
   0.419E+00 0.492E-12 0.536E+03   -.444E+00 -.764E-11 -.536E+03   0.342E-01 -.165E-23 -.111E+00
   -.742E-13 0.478E-12 0.156E+04   0.845E-11 -.796E-12 -.156E+04   0.662E-23 0.000E+00 0.341E+01
   0.994E-01 0.994E-01 0.156E+04   -.986E-01 -.986E-01 -.156E+04   -.109E-02 -.109E-02 0.341E+01
   -.690E-13 0.755E+01 -.152E+04   -.774E-12 -.749E+01 0.153E+04   0.186E-22 -.519E-01 -.496E+01
   0.250E+02 0.149E-11 -.149E+04   -.247E+02 0.810E-11 0.149E+04   -.383E+00 -.132E-22 -.498E+01
   -.447E-13 0.620E-12 -.473E+03   -.741E-11 0.711E-14 0.473E+03   0.000E+00 0.000E+00 0.279E+00
   0.272E+01 0.272E+01 -.473E+03   -.271E+01 -.271E+01 0.472E+03   -.535E-02 -.535E-02 0.326E+00
   0.330E-12 -.419E+00 0.536E+03   0.764E-11 0.444E+00 -.536E+03   0.414E-23 -.342E-01 -.111E+00
   -.428E+00 -.337E-13 0.535E+03   0.424E+00 0.142E-13 -.535E+03   0.654E-02 0.298E-22 -.910E-01
   0.351E-12 0.707E-12 0.156E+04   0.845E-12 -.846E-11 -.156E+04   0.000E+00 0.000E+00 0.341E+01
   -.994E-01 -.994E-01 0.156E+04   0.986E-01 0.986E-01 -.156E+04   0.109E-02 0.109E-02 0.341E+01
   0.367E-12 -.250E+02 -.149E+04   -.816E-11 0.247E+02 0.149E+04   0.000E+00 0.383E+00 -.498E+01
   -.755E+01 -.141E-12 -.152E+04   0.749E+01 0.924E-12 0.153E+04   0.519E-01 -.529E-22 -.496E+01
   0.338E-12 -.852E-12 -.473E+03   -.711E-14 0.738E-11 0.473E+03   -.662E-23 0.993E-23 0.279E+00
   -.272E+01 -.272E+01 -.473E+03   0.271E+01 0.271E+01 0.472E+03   0.535E-02 0.535E-02 0.326E+00
   0.302E-12 0.419E+00 0.536E+03   0.763E-11 -.444E+00 -.536E+03   -.662E-23 0.342E-01 -.111E+00
   -.419E+00 0.139E-11 0.536E+03   0.444E+00 -.769E-11 -.536E+03   -.342E-01 0.000E+00 -.111E+00
   0.350E-12 0.162E-11 0.156E+04   0.824E-12 -.838E-12 -.157E+04   -.529E-22 0.000E+00 0.340E+01
   -.994E-01 0.994E-01 0.156E+04   0.986E-01 -.986E-01 -.156E+04   0.109E-02 -.109E-02 0.341E+01
   0.372E-12 0.250E+02 -.149E+04   -.820E-11 -.247E+02 0.149E+04   -.298E-22 -.383E+00 -.498E+01
   -.250E+02 -.121E-11 -.149E+04   0.247E+02 0.819E-11 0.149E+04   0.383E+00 0.000E+00 -.498E+01
   0.302E-12 0.646E-12 -.472E+03   -.497E-13 0.426E-13 0.472E+03   0.000E+00 0.000E+00 -.206E+00
   -.272E+01 0.272E+01 -.473E+03   0.271E+01 -.271E+01 0.472E+03   0.535E-02 -.535E-02 0.326E+00
 -----------------------------------------------------------------------------------------------
   0.263E-10 0.172E-10 0.527E+02   0.160E-12 -.107E-12 0.193E-11   0.416E-16 -.564E-16 -.527E+02


 POSITION                                       TOTAL-FORCE (eV/Angst)
 -----------------------------------------------------------------------------------
      4.22049      4.22049     16.25814        -0.000000      0.000000      0.058652
      4.22049      4.22049     17.40496        -0.000000      0.000000      0.032142
      0.00000      6.33074      7.50000        -0.000000      0.000046      0.339062
      2.11025      0.00000      7.50000        -0.000046      0.000000      0.339062
      0.00000      0.00000      9.61025        -0.000000      0.000000      0.070243
      2.11025      6.33074      9.61025         0.001574     -0.001574      0.071944
      0.00000      6.33023     11.73368        -0.000000      0.000814     -0.001979
      2.11076      0.00000     11.73368        -0.000814      0.000000     -0.001979
      0.00000      0.00000     13.83822        -0.000000      0.000000      0.002337
      2.10905      6.33193     13.83447        -0.002046      0.002046      0.002649
      0.00000      2.11025      7.50000        -0.000000     -0.000046      0.339062
      2.11025      4.22049      7.50000         0.000627      0.000000      0.339150
      0.00000      4.22049      9.61025        -0.000000      0.000000      0.078265
      2.11025      2.11025      9.61025         0.001574      0.001574      0.071944
      0.00000      2.11076     11.73368        -0.000000     -0.000814     -0.001979
      2.11344      4.22049     11.73659        -0.002253      0.000000      0.001891
      0.00000      4.22049     13.83544        -0.000000      0.000000      0.002269
      2.10905      2.10905     13.83447        -0.002046     -0.002046      0.002649
      4.22049      6.33074      7.50000        -0.000000     -0.000627      0.339150
      6.33074      0.00000      7.50000         0.000046      0.000000      0.339062
      4.22049      0.00000      9.61025        -0.000000      0.000000      0.078265
      6.33074      6.33074      9.61025        -0.001574     -0.001574      0.071944
      4.22049      6.32754     11.73659        -0.000000      0.002253      0.001891
      6.33023      0.00000     11.73368         0.000814      0.000000     -0.001979
      4.22049      0.00000     13.83544        -0.000000      0.000000      0.002269
      6.33193      6.33193     13.83447         0.002046      0.002046      0.002649
      4.22049      2.11025      7.50000        -0.000000      0.000627      0.339150
      6.33074      4.22049      7.50000        -0.000627      0.000000      0.339150
      4.22049      4.22049      9.61025        -0.000000      0.000000      0.084891
      6.33074      2.11025      9.61025        -0.001574      0.001574      0.071944
      4.22049      2.11344     11.73659        -0.000000     -0.002253      0.001891
      6.32754      4.22049     11.73659         0.002253      0.000000      0.001891
      4.22049      4.22049     13.87814        -0.000000      0.000000     -0.044574
      6.33193      2.10905     13.83447         0.002046     -0.002046      0.002649
      0.00000      6.33074      9.61025        -0.000000      0.001947      0.077302
      2.11025      0.00000      9.61025        -0.001947      0.000000      0.077302
      0.00000      0.00000      7.50000        -0.000000      0.000000     -0.501261
      2.11025      6.33074      7.50000        -0.000316      0.000316     -0.501023
      0.00000      6.33258     13.88587        -0.000000     -0.003354     -0.002219
      2.10840      0.00000     13.88587         0.003354      0.000000     -0.002219
      0.00000      0.00000     11.72785        -0.000000      0.000000      0.005219
      2.10979      6.33120     11.72890         0.003766     -0.003766      0.000057
      0.00000      2.11025      9.61025        -0.000000     -0.001947      0.077302
      2.11025      4.22049      9.61025         0.008727      0.000000      0.086317
      0.00000      4.22049      7.50000        -0.000000      0.000000     -0.501129
      2.11025      2.11025      7.50000        -0.000316     -0.000316     -0.501023
      0.00000      2.10840     13.88587        -0.000000      0.003354     -0.002219
      2.10031      4.22049     13.88381        -0.012653      0.000000     -0.005252
      0.00000      4.22049     11.72684        -0.000000      0.000000      0.003673
      2.10979      2.10979     11.72890         0.003766      0.003766      0.000057
      4.22049      6.33074      9.61025        -0.000000     -0.008727      0.086317
      6.33074      0.00000      9.61025         0.001947      0.000000      0.077302
      4.22049      0.00000      7.50000        -0.000000      0.000000     -0.501129
      6.33074      6.33074      7.50000         0.000316      0.000316     -0.501023
      4.22049      6.34068     13.88381        -0.000000      0.012653     -0.005252
      6.33258      0.00000     13.88587        -0.003354      0.000000     -0.002219
      4.22049      0.00000     11.72684        -0.000000      0.000000      0.003673
      6.33120      6.33120     11.72890        -0.003766     -0.003766      0.000057
      4.22049      2.11025      9.61025        -0.000000      0.008727      0.086317
      6.33074      4.22049      9.61025        -0.008727      0.000000      0.086317
      4.22049      4.22049      7.50000        -0.000000      0.000000     -0.501803
      6.33074      2.11025      7.50000         0.000316     -0.000316     -0.501023
      4.22049      2.10031     13.88381        -0.000000     -0.012653     -0.005252
      6.34068      4.22049     13.88381         0.012653      0.000000     -0.005252
      4.22049      4.22049     11.73684        -0.000000      0.000000     -0.003598
      6.33120      2.10979     11.72890        -0.003766      0.003766      0.000057
 -----------------------------------------------------------------------------------
    total drift:                                0.000000      0.000000     -0.021160


--------------------------------------------------------------------------------------------------------



  FREE ENERGIE OF THE ION-ELECTRON SYSTEM (eV)
  ---------------------------------------------------
  free  energy   TOTEN  =      -386.04743753 eV

  energy  without entropy=     -386.04743753  energy(sigma->0) =     -386.04743753



--------------------------------------------------------------------------------------------------------


    POTLOK:  cpu time      0.4708: real time      0.4708


--------------------------------------------------------------------------------------------------------


     LOOP+:  cpu time     55.3034: real time     55.8377
    4ORBIT:  cpu time      0.0000: real time      0.0000

 total amount of memory used by VASP MPI-rank0    78528. kBytes
=======================================================================

   base      :      30000. kBytes
   nonl-proj :      29343. kBytes
   fftplans  :       3857. kBytes
   grid      :       5885. kBytes
   one-center:        137. kBytes
   wavefun   :       9306. kBytes

  
  
 General timing and accounting informations for this job:
 ========================================================
  
                  Total CPU time used (sec):       72.608
                            User time (sec):       70.904
                          System time (sec):        1.704
                         Elapsed time (sec):       78.519
  
                   Maximum memory used (kb):      178440.
                   Average memory used (kb):          N/A
  
                          Minor page faults:        31570
                          Major page faults:           50
                 Voluntary context switches:         7454
