 **********************************************************************
                          MRCC program system
 **********************************************************************
 
                              Written by
     Mihaly Kallay, Peter R. Nagy, David Mester, Laszlo Gyevi-Nagy,
        Jozsef Csoka, P. Bernat Szabo, Zoltan Rolik, Gyula Samu,
     Jozsef Csontos, Bence Hegely, Adam Ganyecz, Istvan Ladjanszki,
       Lorant Szegedy, Bence Ladoczki, Klara Petrov, Mate Farkas,
                    Pal D. Mezei, and Reka A. Horvath
 
        Department of Physical Chemistry and Materials Science
            Budapest University of Technology and Economics
                  Budapest P.O.Box 91, H-1521 Hungary
 
                              www.mrcc.hu
 
                      Release date: March 18, 2022

 ************************ 2023-04-26 04:18:36 *************************
 Executing minp...

 Reading input from MINP...
 
 Input file:
 
calc=DF-MP2
scftype=rhf
verbosity=3
mem=200GB
symm=off
unit=angs
scfiguess=small
scfmaxit=1000
scfalg=locfit1



charge=0
core=2

basis=special
aug-cc-pVDZ
aug-cc-pVDZ

basis_sm=special
def2-SVP
def2-SVP

dfbasis_scf=special
def2-QZVPP-RI-JK
def2-QZVPP-RI-JK

dfbasis_cor=special
aug-cc-pVDZ-RI
aug-cc-pVDZ-RI

ecp=special
none
none

unit=angs
geom=xyz
2
C1 O1 Mg5 O17 ECP53
C     0.00000000000    0.00000000000    2.43329433571
O     0.00000000000    0.00000000000    3.58011415037

 
 
 Checking keyword combinations...
 
 Keywords:
 
 active=none
 agrid=ld0006-ld0590
 agrid_pssp=ld0006-ld0194
 agrid_pssp_sm=ld0006-ld0074
 basis=special
 basis_sm=special
 basopt=off
 bfbasis=none
 bfgsmem=10
 bfgstol=1.0d-3
 bpcompo=0.985
 bpcompv=0.98
 bpdfo=0.985
 bpocc=0.985
 bppdo=0.985
 bppdv=0.98
 bpedo=0.985
 bpedv=0.98
 calc=mp2
 ccmaxit=50
 ccprog=mrcc
 ccsdalg=disk
 ccsdmkl=seq
 ccsdrest=off
 ccsdthreads=2
 cctol=6
 charge=0
 cialg=disk
 ciguess=off
 cmpgrp=auto
 comprest=off
 core=2
 corembed=off
 csapprox=off
 cvs=off
 dboc=off
 delocsomofact=
 dendec=cholesky
 dens=0
 dfalg=lineq
 dfbasis_cab=none
 dfbasis_cor=special
 dfbasis_scf=special
 dfbasis_scf_sm=special
 dfintran=drpa
 dft=off
 dhexc=adc(2)
 diag=david
 docc=
 domrad=10.d0
 drpaalg=fit
 dual=off
 dual_df=off
 ecp=special
 edisp=off
 edisp_embed=off
 embed=off
 etemp=300
 epert=none
 eps=
 espcharge=off
 excrad=1.0
 excrad_fin=0.100000000D-02
 fitting=coulomb
 fmm=off
 fmmord=8
 freq=off
 gamma=1.d0
 gauss=spher
 geom=xyz
 gopt=off
 ghost=none
 gtol=7
 grdens=off
 gridbatch_cos=2000
 grtol=10
 guido_ct=off
 hamilton=dc
 iface=none
 intalg=auto
 itol=10
 laptol=1.d-2
 lccoporder=trffirst
 lcorthr=normal
 lccrest=off
 lmp2dens=on
 lnoepso=0.d0
 lnoepsv=1e-6
 boysalg=jacobi
 localcc=off
 localcorrsymm=off
 locintrf=disk
 mact=
 maxact=off
 maxdim=100
 maxex=0
 maxmicroit=100
 mcscfiguess=hf
 mem=200gb
 mmprog=
 molden=on
 mpitasks=1
 mulmet=0
 mult=
 nacto=0
 nactv=0
 naf_amp=1.d-2
 naf_cor=off
 naf_scf=off
 nafalg=albe
 naftyp=
 nchol=auto
 ndeps=1e-3
 nstate=1
 nsing=0
 nto=off
 ntrip=0
 occ=
 occri=off
 oniom=off
 oniom_eechg=off
 oniom_pcm=off
 oniom_qcorr=off
 optalg=
 optmaxit=50
 optetol=1e-6
 optex=0
 optgtol=1e-4
 optstol=1e-3
 orblocc=off
 orbloce=off
 orbloco=off
 orblocv=off
 orblocguess=cholesky
 osveps=1e-3
 ovirt=off
 ovltol=1e-7
 ovosnorb=80.0
 pcm=off
 popul=off
 pressure=100000
 pssp=off
 ptfreq=0.0
 ptthreads=2
 qro=off
 qscf=off
 qmmm=off
 redcost_exc=off
 redcost_tddft=off
 refdet=none
 rest=0
 rgrid=log3
 rism=off
 rohfcore=semicanonical
 rohftype=semicanonical
 scfalg=locfit1
 scf_conv=auto
 scfdamp=0.0d0
 scfdamp_mode=off
 scfdamp_end=1000
 scfdamp_dampstep=0.d0
 scfdamp_dtol=0.0d0
 scfdamp_maxfact=0.0d0
 scfdamp_minfact=0.0d0
 scfdiis=on
 scfdiis_dtol=0.0d0
 scfdiis_end=1000
 scfdiis_start=2
 scfdiis_step=1
 scfdiis_watch=off
 scfdiis_wrange=10
 scfdiis_wlimit=5
 scfdiis_delmax=2
 scfdtol=7
 scfext=10
 scfguessdens=
 scfiguess=small
 scfloc=pm
 scflshift=0.20
 scflshift_end=8
 scflshift_dtol=0.0
 scflshift_gaptol=0.20
 scfmaxit=1000
 scftype=rhf
 scftol=6
 scspe=1.d0
 scsph=1.d0
 scsps=1.2d0
 scsps_t=1.2d0
 scspt=0.33333333333333
 scspt_t=0.33333333333333
 scspv=1.d0
 spairtol=1e-4
 sqmprog=
 subminp=top
 symm=0
 talg=occ
 temp=298.15
 test=off
 theodore=off
 tlmo=0.999
 tpao=0.94
 tprint=off
 uncontract=off
 unit=angs
 usedisk=2
 verbosity=3
 wpairtol=0.100000000E-05
 
 Calculating integrals for small-basis SCF...

 ************************ 2023-04-26 04:18:36 *************************
 Executing integ...

 Allocation of 200.0 Gbytes of memory...
 
 
 Number of atoms:                  2
 Charge:                           0
 Number of electrons:             14
 Number of core electrons:         4
 Spin multiplicity:                1
 
                 Cartesian coordinates [bohr]      Atomic mass [AMU]  Z
   1  C     0.00000000    0.00000000    4.59825988    12.000000       6
   2  O     0.00000000    0.00000000    6.76543524    15.994915       8
 
 This molecule is linear.
 
 Rotational constants [cm-1]: 
      1.869485479558
 
 Point group: Cxv 
 Computational point group: C1  
 
 Cartesian coordinates in standard orientation [bohr]
   1  C     0.00000000    0.00000000   -1.23821721
   2  O     0.00000000    0.00000000    0.92895816
 
 Nuclear repulsion energy [au]:         22.148646010002
 
 
 Basis set information:
 
 Maximum angular momentum: g
 Maximum number of contracted Gaussians:   10
 Maximum number of primitive Gaussians:    14
 Spherical harmonic GTOs are used.
 
 
 Conventional basis set:
 
   1  C  def2-svp [ 7s 4p 1d | 3s 2p 1d ]
   2  O  def2-svp [ 7s 4p 1d | 3s 2p 1d ]
 
 Basis functions:
            1             2             3             4             5             6             7             8             9            10
    0    1C1s          1C2s          1C3s          1C1pz         1C1py         1C1px         1C2pz         1C2py         1C2px         1C1d-2    
    1    1C1d-1        1C1d0         1C1d+1        1C1d+2        2O1s          2O2s          2O3s          2O1pz         2O1py         2O1px     
    2    2O2pz         2O2py         2O2px         2O1d-2        2O1d-1        2O1d0         2O1d+1        2O1d+2    
 
 Maximum number of basis functions per shell:    6
 Total number of basis functions:     28
 
 
 Fitting basis set for the SCF calculation:
 
   1  C  def2-qzvpp-ri-jk [ 14s 10p 6d 2f 1g | 10s 8p 5d 1f 1g ]
   2  O  def2-qzvpp-ri-jk [ 14s 10p 6d 2f 1g | 10s 8p 4d 2f 1g ]
 
 Basis functions:
            1             2             3             4             5             6             7             8             9            10
    0    1C1s          1C2s          1C3s          1C4s          1C5s          1C6s          1C7s          1C8s          1C9s          1C10s     
    1    1C1pz         1C1py         1C1px         1C2pz         1C2py         1C2px         1C3pz         1C3py         1C3px         1C4pz     
    2    1C4py         1C4px         1C5pz         1C5py         1C5px         1C6pz         1C6py         1C6px         1C7pz         1C7py     
    3    1C7px         1C8pz         1C8py         1C8px         1C1d-2        1C1d-1        1C1d0         1C1d+1        1C1d+2        1C2d-2    
    4    1C2d-1        1C2d0         1C2d+1        1C2d+2        1C3d-2        1C3d-1        1C3d0         1C3d+1        1C3d+2        1C4d-2    
    5    1C4d-1        1C4d0         1C4d+1        1C4d+2        1C5d-2        1C5d-1        1C5d0         1C5d+1        1C5d+2        1C1f-3    
    6    1C1f-2        1C1f-1        1C1f0         1C1f+1        1C1f+2        1C1f+3        1C1g-4        1C1g-3        1C1g-2        1C1g-1    
    7    1C1g0         1C1g+1        1C1g+2        1C1g+3        1C1g+4        2O1s          2O2s          2O3s          2O4s          2O5s      
    8    2O6s          2O7s          2O8s          2O9s          2O10s         2O1pz         2O1py         2O1px         2O2pz         2O2py     
    9    2O2px         2O3pz         2O3py         2O3px         2O4pz         2O4py         2O4px         2O5pz         2O5py         2O5px     
   10    2O6pz         2O6py         2O6px         2O7pz         2O7py         2O7px         2O8pz         2O8py         2O8px         2O1d-2    
   11    2O1d-1        2O1d0         2O1d+1        2O1d+2        2O2d-2        2O2d-1        2O2d0         2O2d+1        2O2d+2        2O3d-2    
   12    2O3d-1        2O3d0         2O3d+1        2O3d+2        2O4d-2        2O4d-1        2O4d0         2O4d+1        2O4d+2        2O1f-3    
   13    2O1f-2        2O1f-1        2O1f0         2O1f+1        2O1f+2        2O1f+3        2O2f-3        2O2f-2        2O2f-1        2O2f0     
   14    2O2f+1        2O2f+2        2O2f+3        2O1g-4        2O1g-3        2O1g-2        2O1g-1        2O1g0         2O1g+1        2O1g+2    
   15    2O1g+3        2O1g+4    
 
 Maximum number of basis functions per shell:   25
 Total number of basis functions:    152
 
 
 Initializing the SAD routines for the initial guess...
 Checking the files required for the initial guess...
 Density files have not been found for the initial guess.
 Generating SCFDENSITIES.C.def2-svp.0
 Generating SCFDENSITIES.O.def2-svp.0
 CPU time [min]:     0.115                   Wall time [min]:     0.179
 
 Character table for point group C1:
 
          E  
    A     1
 
 Number of basis functions per irrep:
    A      28
 
 
 Calculation of overlap integrals...
 CPU time [min]:     0.116                   Wall time [min]:     0.179
 
 Calculation of the square root of the overlap matrix...
 Minimum eigenvalue of the overlap matrix: 0.197811E-01
 CPU time [min]:     0.171                   Wall time [min]:     0.181
 
 Calculation of kinetic energy integrals...
 CPU time [min]:     0.172                   Wall time [min]:     0.181
 Calculation of dipole moment integrals...
 CPU time [min]:     0.172                   Wall time [min]:     0.181
 Calculation of nuclear attraction integrals...
 CPU time [min]:     0.174                   Wall time [min]:     0.181
 
 Calculation of prescreening integrals...
 CPU time [min]:     0.208                   Wall time [min]:     0.182
 
 Calculation of two-center Coulomb integrals...
   5% done.
  19% done.
  31% done.
  52% done.
  72% done.
  89% done.
 100% done.
 CPU time [min]:     0.295                   Wall time [min]:     0.184
 
 Cholesky decomposition of the two-center matrix...
 Reciprocal of the condition number:  0.440129E-04
 CPU time [min]:     0.416                   Wall time [min]:     0.188
 
 
 Running small-basis SCF...

 ************************ 2023-04-26 04:18:48 *************************
 Executing scf...

 @scfsetup: integrals calculated directly
            mrcc/integ direct run
 @scfsetup: calculating on full matrices
            not using symmetry adapted basis
 @scfsetup: diis switched on
 @scfsetup: number of steps to extrapolate from  10
 @scfsetup: tolerance in energy deviation    0.100000E-05
            tolerance in density deviation    0.100000E-06
 @scfsetup: maximum number of iterations:1000
 @scfsetup: restricted closed shell hf calc
 @scfsetup: starting scf from superposition of atomic densities
 @scfsetup: occupation set:
            from initial orbitals
 @scfsetup: Parameter-set for SCF acceleration: normal
 @scfsetup: diis runs from iteration:   2
 @scfsetup: diis runs to iteration:1000
 @scfsetup: diis runs in every iteration
 @scfsetup: diiswatch is disabled                   
 @scfsetup: diis dtol criteria to switch on:      0.0000E+00
           (or the iteration number below is reached)
 @scfsetup: static damping scheme
            iteration step criteria to turn damping off: 3
 @scfsetup: dynamic level shifting
            tolarance in HOMO-LUMO gap:  0.200
            tolarance in density deviation:     0.0000E+00
            iteration step criteria to turn level shifting off: 8
 Allocation of 200.0 Gbytes of memory...
 ======================================================================
 ITERATION STEP   1
 CPU time [min]:     0.015                   Wall time [min]:     0.008
 

 SCF control                  : initial
 Damping factor/level shift   : 0.000/0.200
 DIIS [start/end/frequency]   :   2 /*** /  1

 Constructing Fock-matrix...
 
 Pipek-Mezey localization...
 Step  Convergence
   1   0.754844492853
   2   0.161889296388
   3   0.000659002868
   4   0.000000005605
 CPU time [min]:     0.058                   Wall time [min]:     0.010
 
 Constructing local fitting domains...
 Maximum number of atoms in fitting domains:    2
 Average number of atoms in fitting domains:    2.0
 
 First step of Coulomb + first step of exchange...
 Exchange contribution is evaluated for MOs 1 to 7.
   1% done.
  26% done.
  38% done.
  68% done.
 100% done.
 CPU time [min]:     0.404                   Wall time [min]:     0.020
 
 Fitting and assembly step of exchange...
 CPU time [min]:     0.407                   Wall time [min]:     0.020
 
 Second step of Coulomb...
   1% done.
  26% done.
  38% done.
  68% done.
 100% done.
 CPU time [min]:     0.414                   Wall time [min]:     0.021
 
 Gradient norm:      1.6037E+00
 RMS of [F,P]:                                         0.07421905592499
 RMS of difference density:                            0.03182368265543
 Gap [au]:  0.70188425
 ALPHA OCC:   7
 BETA  OCC:   7
 
 ***HARTREE-FOCK ENERGY IN STEP   1 IS       -112.4048862734007628 [AU]
 ======================================================================
 ITERATION STEP   2
 CPU time [min]:     0.433                   Wall time [min]:     0.021
 

 SCF control                  : diis
 Damping factor/level shift   : 0.000/0.000
 DIIS [start/end/frequency]   :   2 /*** /  1

 Constructing Fock-matrix...
 
 Pipek-Mezey localization...
 Step  Convergence
   1   0.569771363731
   2   0.148071756781
   3   0.070639783551
   4   0.000035907568
   5   0.000000000001
 CPU time [min]:     0.461                   Wall time [min]:     0.022
 
 Constructing local fitting domains...
 Maximum number of atoms in fitting domains:    2
 Average number of atoms in fitting domains:    2.0
 
 First step of Coulomb + first step of exchange...
 Exchange contribution is evaluated for MOs 1 to 7.
   1% done.
  26% done.
  38% done.
  68% done.
 100% done.
 CPU time [min]:     0.486                   Wall time [min]:     0.023
 
 Fitting and assembly step of exchange...
 CPU time [min]:     0.487                   Wall time [min]:     0.023
 
 Second step of Coulomb...
   1% done.
  26% done.
  38% done.
  68% done.
 100% done.
 CPU time [min]:     0.493                   Wall time [min]:     0.023
 
 Gradient norm:      1.7265E-01
 DIIS is running in this iteration step.
 RMS of [F,P]:                                         0.00916988069253
 RMS of difference density:                            0.00900091969229
 Gap [au]:  0.69708118
 ALPHA OCC:   7
 BETA  OCC:   7
 
 ***HARTREE-FOCK ENERGY IN STEP   2 IS       -112.6334551431505417 [AU]
 
 Step comparison  Energy Drift [au]  DIIS error drift  Gradient drift
        1            2.2857E-01         6.5049E-02       1.4310E+00
        2            1.1263E+02         1.0000E-07       1.4310E+00
 ======================================================================
 ITERATION STEP   3
 CPU time [min]:     0.501                   Wall time [min]:     0.023
 

 SCF control                  : diis
 Damping factor/level shift   : 0.000/0.000
 DIIS [start/end/frequency]   :   2 /*** /  1

 Constructing Fock-matrix...
 
 Pipek-Mezey localization...
 Step  Convergence
   1   0.571564694725
   2   0.084672560509
   3   0.001235343485
   4   0.000000122359
 CPU time [min]:     0.519                   Wall time [min]:     0.024
 
 Constructing local fitting domains...
 Local fitting domains are unchanged.
 
 First step of Coulomb + first step of exchange...
 Exchange contribution is evaluated for MOs 1 to 7.
   1% done.
  26% done.
  38% done.
  68% done.
 100% done.
 CPU time [min]:     0.543                   Wall time [min]:     0.024
 
 Fitting and assembly step of exchange...
 CPU time [min]:     0.543                   Wall time [min]:     0.024
 
 Second step of Coulomb...
   1% done.
  26% done.
  38% done.
  68% done.
 100% done.
 CPU time [min]:     0.549                   Wall time [min]:     0.024
 
 Gradient norm:      3.8587E-02
 DIIS is running in this iteration step.
 RMS of [F,P]:                                         0.00220852702821
 RMS of difference density:                            0.00195716380672
 Gap [au]:  0.69505022
 ALPHA OCC:   7
 BETA  OCC:   7
 
 ***HARTREE-FOCK ENERGY IN STEP   3 IS       -112.6421263578086496 [AU]
 
 Step comparison  Energy Drift [au]  DIIS error drift  Gradient drift
        2            8.6712E-03         6.9614E-03       1.3406E-01
 ======================================================================
 ITERATION STEP   4
 CPU time [min]:     0.556                   Wall time [min]:     0.025
 

 SCF control                  : diis
 Damping factor/level shift   : 0.000/0.000
 DIIS [start/end/frequency]   :   2 /*** /  1

 Constructing Fock-matrix...
 
 Pipek-Mezey localization...
 Step  Convergence
   1   0.569737445131
   2   0.223710093283
   3   0.135054798412
   4   0.000141406364
   5   0.000000000001
 CPU time [min]:     0.574                   Wall time [min]:     0.025
 
 Constructing local fitting domains...
 Local fitting domains are unchanged.
 
 First step of Coulomb + first step of exchange...
 Exchange contribution is evaluated for MOs 1 to 7.
   1% done.
  26% done.
  38% done.
  68% done.
 100% done.
 CPU time [min]:     0.599                   Wall time [min]:     0.026
 
 Fitting and assembly step of exchange...
 CPU time [min]:     0.599                   Wall time [min]:     0.026
 
 Second step of Coulomb...
   1% done.
  26% done.
  38% done.
  68% done.
 100% done.
 CPU time [min]:     0.605                   Wall time [min]:     0.026
 
 Gradient norm:      1.1796E-02
 DIIS is running in this iteration step.
 RMS of [F,P]:                                         0.00066014599270
 RMS of difference density:                            0.00099760738469
 Gap [au]:  0.69400234
 ALPHA OCC:   7
 BETA  OCC:   7
 
 ***HARTREE-FOCK ENERGY IN STEP   4 IS       -112.6427474629819443 [AU]
 
 Step comparison  Energy Drift [au]  DIIS error drift  Gradient drift
        3            6.2111E-04         1.5484E-03       2.6792E-02
 ======================================================================
 ITERATION STEP   5
 CPU time [min]:     0.612                   Wall time [min]:     0.026
 

 SCF control                  : diis
 Damping factor/level shift   : 0.000/0.000
 DIIS [start/end/frequency]   :   2 /*** /  1

 Constructing Fock-matrix...
 
 Pipek-Mezey localization...
 Step  Convergence
   1   0.573127003553
   2   0.085655919736
   3   0.013126942505
   4   0.000005334445
   5   0.000000000003
 CPU time [min]:     0.630                   Wall time [min]:     0.027
 
 Constructing local fitting domains...
 Local fitting domains are unchanged.
 
 First step of Coulomb + first step of exchange...
 Exchange contribution is evaluated for MOs 1 to 7.
   1% done.
  26% done.
  38% done.
  68% done.
 100% done.
 CPU time [min]:     0.654                   Wall time [min]:     0.027
 
 Fitting and assembly step of exchange...
 CPU time [min]:     0.654                   Wall time [min]:     0.027
 
 Second step of Coulomb...
   1% done.
  26% done.
  38% done.
  68% done.
 100% done.
 CPU time [min]:     0.660                   Wall time [min]:     0.028
 
 Gradient norm:      7.7386E-03
 DIIS is running in this iteration step.
 RMS of [F,P]:                                         0.00041955708785
 RMS of difference density:                            0.00026543127493
 Gap [au]:  0.69309334
 ALPHA OCC:   7
 BETA  OCC:   7
 
 ***HARTREE-FOCK ENERGY IN STEP   5 IS       -112.6428326297486109 [AU]
 
 Step comparison  Energy Drift [au]  DIIS error drift  Gradient drift
        4            8.5167E-05         2.4059E-04       4.0571E-03
 ======================================================================
 ITERATION STEP   6
 CPU time [min]:     0.667                   Wall time [min]:     0.028
 

 SCF control                  : diis
 Damping factor/level shift   : 0.000/0.000
 DIIS [start/end/frequency]   :   2 /*** /  1

 Constructing Fock-matrix...
 
 Pipek-Mezey localization...
 Step  Convergence
   1   0.626377409571
   2   0.689070583907
   3   0.098626422189
   4   0.002094505110
   5   0.000000557596
   6   0.000000000000
 CPU time [min]:     0.685                   Wall time [min]:     0.028
 
 Constructing local fitting domains...
 Local fitting domains are unchanged.
 
 First step of Coulomb + first step of exchange...
 Exchange contribution is evaluated for MOs 1 to 7.
   1% done.
  26% done.
  38% done.
  68% done.
 100% done.
 CPU time [min]:     0.708                   Wall time [min]:     0.029
 
 Fitting and assembly step of exchange...
 CPU time [min]:     0.708                   Wall time [min]:     0.029
 
 Second step of Coulomb...
   1% done.
  26% done.
  38% done.
  68% done.
 100% done.
 CPU time [min]:     0.715                   Wall time [min]:     0.029
 
 Gradient norm:      1.0975E-03
 DIIS is running in this iteration step.
 RMS of [F,P]:                                         0.00006999488913
 RMS of difference density:                            0.00011901018442
 Gap [au]:  0.69301715
 ALPHA OCC:   7
 BETA  OCC:   7
 
 ***HARTREE-FOCK ENERGY IN STEP   6 IS       -112.6428460057927055 [AU]
 
 Step comparison  Energy Drift [au]  DIIS error drift  Gradient drift
        5            1.3376E-05         3.4956E-04       6.6411E-03
 ======================================================================
 ITERATION STEP   7
 CPU time [min]:     0.724                   Wall time [min]:     0.029
 

 SCF control                  : diis
 Damping factor/level shift   : 0.000/0.000
 DIIS [start/end/frequency]   :   2 /*** /  1

 Constructing Fock-matrix...
 
 Pipek-Mezey localization...
 Step  Convergence
   1   0.567660991241
   2   0.112602114640
   3   0.039862579505
   4   0.000008424099
   5   0.000000000013
   6   0.000000000000
 CPU time [min]:     0.743                   Wall time [min]:     0.030
 
 Constructing local fitting domains...
 Local fitting domains are unchanged.
 
 First step of Coulomb + first step of exchange...
 Exchange contribution is evaluated for MOs 1 to 7.
   1% done.
  26% done.
  38% done.
  68% done.
 100% done.
 CPU time [min]:     0.766                   Wall time [min]:     0.030
 
 Fitting and assembly step of exchange...
 CPU time [min]:     0.766                   Wall time [min]:     0.030
 
 Second step of Coulomb...
   1% done.
  26% done.
  38% done.
  68% done.
 100% done.
 CPU time [min]:     0.773                   Wall time [min]:     0.031
 
 Gradient norm:      2.5057E-04
 DIIS is running in this iteration step.
 RMS of [F,P]:                                         0.00001389484083
 RMS of difference density:                            0.00001782963395
 Gap [au]:  0.69303702
 ALPHA OCC:   7
 BETA  OCC:   7
 
 ***HARTREE-FOCK ENERGY IN STEP   7 IS       -112.6428471615140552 [AU]
 
 Step comparison  Energy Drift [au]  DIIS error drift  Gradient drift
        6            1.1557E-06         5.6100E-05       8.4692E-04
 ======================================================================
 ITERATION STEP   8
 CPU time [min]:     0.778                   Wall time [min]:     0.031
 

 SCF control                  : diis
 Damping factor/level shift   : 0.000/0.000
 DIIS [start/end/frequency]   :   2 /*** /  1

 Constructing Fock-matrix...
 
 Pipek-Mezey localization...
 Step  Convergence
   1   0.581338800427
   2   0.079603435108
   3   0.000011279725
   4   0.000000000068
   5   0.000000000000
 CPU time [min]:     0.797                   Wall time [min]:     0.031
 
 Constructing local fitting domains...
 Local fitting domains are unchanged.
 
 First step of Coulomb + first step of exchange...
 Exchange contribution is evaluated for MOs 1 to 7.
   1% done.
  26% done.
  38% done.
  68% done.
 100% done.
 CPU time [min]:     0.819                   Wall time [min]:     0.032
 
 Fitting and assembly step of exchange...
 CPU time [min]:     0.819                   Wall time [min]:     0.032
 
 Second step of Coulomb...
   1% done.
  26% done.
  38% done.
  68% done.
 100% done.
 CPU time [min]:     0.826                   Wall time [min]:     0.032
 
 Gradient norm:      2.5908E-05
 DIIS is running in this iteration step.
 RMS of [F,P]:                                         0.00000150940971
 RMS of difference density:                            0.00000184883984
 Gap [au]:  0.69303774
 ALPHA OCC:   7
 BETA  OCC:   7
 
 ***HARTREE-FOCK ENERGY IN STEP   8 IS       -112.6428471904555835 [AU]
 
 Step comparison  Energy Drift [au]  DIIS error drift  Gradient drift
        7            2.8942E-08         1.2385E-05       2.2466E-04
 ======================================================================
 ITERATION STEP   9
 CPU time [min]:     0.832                   Wall time [min]:     0.032
 

 SCF control                  : diis
 Damping factor/level shift   : 0.000/0.000
 DIIS [start/end/frequency]   :   2 /*** /  1

 Constructing Fock-matrix...
 
 Pipek-Mezey localization...
 Step  Convergence
   1   0.577465156448
   2   0.078681890580
   3   0.000012605108
   4   0.000000000573
   5   0.000000000000
 CPU time [min]:     0.850                   Wall time [min]:     0.033
 
 Constructing local fitting domains...
 Local fitting domains are unchanged.
 
 First step of Coulomb + first step of exchange...
 Exchange contribution is evaluated for MOs 1 to 7.
   1% done.
  26% done.
  38% done.
  68% done.
 100% done.
 CPU time [min]:     0.873                   Wall time [min]:     0.033
 
 Fitting and assembly step of exchange...
 CPU time [min]:     0.873                   Wall time [min]:     0.033
 
 Second step of Coulomb...
   1% done.
  26% done.
  38% done.
  68% done.
 100% done.
 CPU time [min]:     0.880                   Wall time [min]:     0.034
 
 Gradient norm:      2.6299E-06
 DIIS is running in this iteration step.
 RMS of [F,P]:                                         0.00000017294274
 RMS of difference density:                            0.00000030630405
 Gap [au]:  0.69303791
 ALPHA OCC:   7
 BETA  OCC:   7
 
 ***HARTREE-FOCK ENERGY IN STEP   9 IS       -112.6428471907553046 [AU]
 
 Step comparison  Energy Drift [au]  DIIS error drift  Gradient drift
        8            2.9972E-10         1.3365E-06       2.3278E-05
 ======================================================================
 ITERATION STEP  10
 CPU time [min]:     0.885                   Wall time [min]:     0.034
 

 SCF control                  : diis
 Damping factor/level shift   : 0.000/0.000
 DIIS [start/end/frequency]   :   2 /*** /  1

 Constructing Fock-matrix...
 
 Pipek-Mezey localization...
 Step  Convergence
   1   0.562592506903
   2   0.064676633056
   3   0.000033993815
   4   0.000000000059
   5   0.000000000000
 CPU time [min]:     0.904                   Wall time [min]:     0.034
 
 Constructing local fitting domains...
 Local fitting domains are unchanged.
 
 First step of Coulomb + first step of exchange...
 Exchange contribution is evaluated for MOs 1 to 7.
   1% done.
  26% done.
  38% done.
  68% done.
 100% done.
 CPU time [min]:     0.927                   Wall time [min]:     0.035
 
 Fitting and assembly step of exchange...
 CPU time [min]:     0.927                   Wall time [min]:     0.035
 
 Second step of Coulomb...
   1% done.
  26% done.
  38% done.
  68% done.
 100% done.
 CPU time [min]:     0.933                   Wall time [min]:     0.035
 
 Gradient norm:      4.8018E-07
 DIIS is running in this iteration step.
 RMS of [F,P]:                                         0.00000002581640
 RMS of difference density:                            0.00000003937729
 Gap [au]:  0.69303804
 ALPHA OCC:   7
 BETA  OCC:   7
 
 ***HARTREE-FOCK ENERGY IN STEP  10 IS       -112.6428471907601079 [AU]
 
 Step comparison  Energy Drift [au]  DIIS error drift  Gradient drift
        9            4.8033E-12         1.4713E-07       2.1497E-06
 ======================================================================
 
 SUCCESS...
 THE SCF ITERATION HAS CONVERGED!
 
                   A   
 FINAL ALPHA OCC:   7
 FINAL BETA  OCC:   7
 
 ***FINAL HARTREE-FOCK ENERGY:       -112.6428471907601079 [AU]
 
 Orbital energies [au]:
      Irrep         Alpha          Beta
    1   A        -20.667304     -20.667304
    2   A        -11.376668     -11.376668
    3   A         -1.496432      -1.496432
    4   A         -0.795847      -0.795847
    5   A         -0.634881      -0.634881
    6   A         -0.634881      -0.634881
    7   A         -0.553304      -0.553304
 
    8   A          0.139734       0.139734
    9   A          0.139734       0.139734
   10   A          0.353769       0.353769
   11   A          0.557535       0.557535
   12   A          0.669619       0.669619
   13   A          0.669619       0.669619
   14   A          0.974780       0.974780
   15   A          1.119672       1.119672
   16   A          1.239262       1.239262
   17   A          1.239262       1.239262
   18   A          1.499078       1.499078
   19   A          1.885685       1.885685
   20   A          1.885685       1.885685
   21   A          1.953392       1.953392
   22   A          1.953392       1.953392
   23   A          2.729527       2.729527
   24   A          2.959901       2.959901
   25   A          2.959901       2.959901
   26   A          3.530710       3.530710
   27   A          3.530710       3.530710
   28   A          3.982079       3.982079
 
 RETURNING FROM SCF ALGORITHM
 ======================================================================

 ************************ 2023-04-26 04:18:50 *************************
 Executing integ...

 Allocation of 200.0 Gbytes of memory...
 
 
 Number of atoms:                  2
 Charge:                           0
 Number of electrons:             14
 Number of core electrons:         4
 Spin multiplicity:                1
 
                 Cartesian coordinates [bohr]      Atomic mass [AMU]  Z
   1  C     0.00000000    0.00000000    4.59825988    12.000000       6
   2  O     0.00000000    0.00000000    6.76543524    15.994915       8
 
 This molecule is linear.
 
 Rotational constants [cm-1]: 
      1.869485479558
 
 Point group: Cxv 
 Computational point group: C1  
 
 Cartesian coordinates in standard orientation [bohr]
   1  C     0.00000000    0.00000000   -1.23821721
   2  O     0.00000000    0.00000000    0.92895816
 
 Nuclear repulsion energy [au]:         22.148646010002
 
 
 Basis set information:
 
 Maximum angular momentum: g
 Maximum number of contracted Gaussians:   10
 Maximum number of primitive Gaussians:    14
 Spherical harmonic GTOs are used.
 
 
 Conventional basis set:
 
   1  C  aug-cc-pvdz [ 10s 5p 2d | 4s 3p 2d ]
   2  O  aug-cc-pvdz [ 10s 5p 2d | 4s 3p 2d ]
 
 Basis functions:
            1             2             3             4             5             6             7             8             9            10
    0    1C1s          1C2s          1C3s          1C4s          1C1pz         1C1py         1C1px         1C2pz         1C2py         1C2px     
    1    1C3pz         1C3py         1C3px         1C1d-2        1C1d-1        1C1d0         1C1d+1        1C1d+2        1C2d-2        1C2d-1    
    2    1C2d0         1C2d+1        1C2d+2        2O1s          2O2s          2O3s          2O4s          2O1pz         2O1py         2O1px     
    3    2O2pz         2O2py         2O2px         2O3pz         2O3py         2O3px         2O1d-2        2O1d-1        2O1d0         2O1d+1    
    4    2O1d+2        2O2d-2        2O2d-1        2O2d0         2O2d+1        2O2d+2    
 
 Maximum number of basis functions per shell:   10
 Total number of basis functions:     46
 
 
 Fitting basis set for the SCF calculation:
 
   1  C  def2-qzvpp-ri-jk [ 14s 10p 6d 2f 1g | 10s 8p 5d 1f 1g ]
   2  O  def2-qzvpp-ri-jk [ 14s 10p 6d 2f 1g | 10s 8p 4d 2f 1g ]
 
 Basis functions:
            1             2             3             4             5             6             7             8             9            10
    0    1C1s          1C2s          1C3s          1C4s          1C5s          1C6s          1C7s          1C8s          1C9s          1C10s     
    1    1C1pz         1C1py         1C1px         1C2pz         1C2py         1C2px         1C3pz         1C3py         1C3px         1C4pz     
    2    1C4py         1C4px         1C5pz         1C5py         1C5px         1C6pz         1C6py         1C6px         1C7pz         1C7py     
    3    1C7px         1C8pz         1C8py         1C8px         1C1d-2        1C1d-1        1C1d0         1C1d+1        1C1d+2        1C2d-2    
    4    1C2d-1        1C2d0         1C2d+1        1C2d+2        1C3d-2        1C3d-1        1C3d0         1C3d+1        1C3d+2        1C4d-2    
    5    1C4d-1        1C4d0         1C4d+1        1C4d+2        1C5d-2        1C5d-1        1C5d0         1C5d+1        1C5d+2        1C1f-3    
    6    1C1f-2        1C1f-1        1C1f0         1C1f+1        1C1f+2        1C1f+3        1C1g-4        1C1g-3        1C1g-2        1C1g-1    
    7    1C1g0         1C1g+1        1C1g+2        1C1g+3        1C1g+4        2O1s          2O2s          2O3s          2O4s          2O5s      
    8    2O6s          2O7s          2O8s          2O9s          2O10s         2O1pz         2O1py         2O1px         2O2pz         2O2py     
    9    2O2px         2O3pz         2O3py         2O3px         2O4pz         2O4py         2O4px         2O5pz         2O5py         2O5px     
   10    2O6pz         2O6py         2O6px         2O7pz         2O7py         2O7px         2O8pz         2O8py         2O8px         2O1d-2    
   11    2O1d-1        2O1d0         2O1d+1        2O1d+2        2O2d-2        2O2d-1        2O2d0         2O2d+1        2O2d+2        2O3d-2    
   12    2O3d-1        2O3d0         2O3d+1        2O3d+2        2O4d-2        2O4d-1        2O4d0         2O4d+1        2O4d+2        2O1f-3    
   13    2O1f-2        2O1f-1        2O1f0         2O1f+1        2O1f+2        2O1f+3        2O2f-3        2O2f-2        2O2f-1        2O2f0     
   14    2O2f+1        2O2f+2        2O2f+3        2O1g-4        2O1g-3        2O1g-2        2O1g-1        2O1g0         2O1g+1        2O1g+2    
   15    2O1g+3        2O1g+4    
 
 Maximum number of basis functions per shell:   25
 Total number of basis functions:    152
 
 
 Fitting basis set for the correlation calculation:
 
   1  C  aug-cc-pvdz-ri [ 8s 6p 5d 3f | 8s 6p 5d 3f ]
   2  O  aug-cc-pvdz-ri [ 8s 6p 5d 3f | 8s 6p 5d 3f ]
 
 Basis functions:
            1             2             3             4             5             6             7             8             9            10
    0    1C1s          1C2s          1C3s          1C4s          1C5s          1C6s          1C7s          1C8s          1C1pz         1C1py     
    1    1C1px         1C2pz         1C2py         1C2px         1C3pz         1C3py         1C3px         1C4pz         1C4py         1C4px     
    2    1C5pz         1C5py         1C5px         1C6pz         1C6py         1C6px         1C1d-2        1C1d-1        1C1d0         1C1d+1    
    3    1C1d+2        1C2d-2        1C2d-1        1C2d0         1C2d+1        1C2d+2        1C3d-2        1C3d-1        1C3d0         1C3d+1    
    4    1C3d+2        1C4d-2        1C4d-1        1C4d0         1C4d+1        1C4d+2        1C5d-2        1C5d-1        1C5d0         1C5d+1    
    5    1C5d+2        1C1f-3        1C1f-2        1C1f-1        1C1f0         1C1f+1        1C1f+2        1C1f+3        1C2f-3        1C2f-2    
    6    1C2f-1        1C2f0         1C2f+1        1C2f+2        1C2f+3        1C3f-3        1C3f-2        1C3f-1        1C3f0         1C3f+1    
    7    1C3f+2        1C3f+3        2O1s          2O2s          2O3s          2O4s          2O5s          2O6s          2O7s          2O8s      
    8    2O1pz         2O1py         2O1px         2O2pz         2O2py         2O2px         2O3pz         2O3py         2O3px         2O4pz     
    9    2O4py         2O4px         2O5pz         2O5py         2O5px         2O6pz         2O6py         2O6px         2O1d-2        2O1d-1    
   10    2O1d0         2O1d+1        2O1d+2        2O2d-2        2O2d-1        2O2d0         2O2d+1        2O2d+2        2O3d-2        2O3d-1    
   11    2O3d0         2O3d+1        2O3d+2        2O4d-2        2O4d-1        2O4d0         2O4d+1        2O4d+2        2O5d-2        2O5d-1    
   12    2O5d0         2O5d+1        2O5d+2        2O1f-3        2O1f-2        2O1f-1        2O1f0         2O1f+1        2O1f+2        2O1f+3    
   13    2O2f-3        2O2f-2        2O2f-1        2O2f0         2O2f+1        2O2f+2        2O2f+3        2O3f-3        2O3f-2        2O3f-1    
   14    2O3f0         2O3f+1        2O3f+2        2O3f+3    
 
 Maximum number of basis functions per shell:   25
 Total number of basis functions:    144
 
 
 Old basis set for SCF restart
 
   1  C  def2-svp [ 7s 4p 1d | 3s 2p 1d ]
   2  O  def2-svp [ 7s 4p 1d | 3s 2p 1d ]
 
 Basis functions:
            1             2             3             4             5             6             7             8             9            10
    0    1C1s          1C2s          1C3s          1C1pz         1C1py         1C1px         1C2pz         1C2py         1C2px         1C1d-2    
    1    1C1d-1        1C1d0         1C1d+1        1C1d+2        2O1s          2O2s          2O3s          2O1pz         2O1py         2O1px     
    2    2O2pz         2O2py         2O2px         2O1d-2        2O1d-1        2O1d0         2O1d+1        2O1d+2    
 
 Maximum number of basis functions per shell:   25
 Total number of basis functions:     28
 
 
 Character table for point group C1:
 
          E  
    A     1
 
 Number of basis functions per irrep:
    A      46
 
 
 Calculation of overlap integrals...
 CPU time [min]:     0.077                   Wall time [min]:     0.005
 
 Calculation of the square root of the overlap matrix...
 Minimum eigenvalue of the overlap matrix: 0.233116E-02
 CPU time [min]:     0.105                   Wall time [min]:     0.006
 
 Calculation of kinetic energy integrals...
 CPU time [min]:     0.105                   Wall time [min]:     0.006
 Calculation of dipole moment integrals...
 CPU time [min]:     0.106                   Wall time [min]:     0.006
 Calculation of nuclear attraction integrals...
 CPU time [min]:     0.108                   Wall time [min]:     0.006
 Calculation of overlap integrals...
 CPU time [min]:     0.109                   Wall time [min]:     0.006
 
 Calculation of prescreening integrals...
 CPU time [min]:     0.126                   Wall time [min]:     0.006
 
 Calculation of two-center Coulomb integrals...
   5% done.
  19% done.
  31% done.
  52% done.
  72% done.
  89% done.
 100% done.
 CPU time [min]:     0.133                   Wall time [min]:     0.006
 
 Cholesky decomposition of the two-center matrix...
 Reciprocal of the condition number:  0.440129E-04
 CPU time [min]:     0.139                   Wall time [min]:     0.007
 

 ************************ 2023-04-26 04:18:50 *************************
 Executing scf...

 @scfsetup: integrals calculated directly
            mrcc/integ direct run
 @scfsetup: calculating on full matrices
            not using symmetry adapted basis
 @scfsetup: diis switched on
 @scfsetup: number of steps to extrapolate from  10
 @scfsetup: tolerance in energy deviation    0.100000E-05
            tolerance in density deviation    0.100000E-06
 @scfsetup: maximum number of iterations:1000
 @scfsetup: restricted closed shell hf calc
 @scfsetup: restarting scf from SCFDENSITIES file
 @scfsetup: occupation set:
            from initial orbitals
 @scfsetup: Parameter-set for SCF acceleration: normal
 @scfsetup: diis runs from iteration:   2
 @scfsetup: diis runs to iteration:1000
 @scfsetup: diis runs in every iteration
 @scfsetup: diiswatch is disabled                   
 @scfsetup: diis dtol criteria to switch on:      0.0000E+00
           (or the iteration number below is reached)
 @scfsetup: static damping scheme
            iteration step criteria to turn damping off: 3
 @scfsetup: dynamic level shifting
            tolarance in HOMO-LUMO gap:  0.200
            tolarance in density deviation:     0.0000E+00
            iteration step criteria to turn level shifting off: 8
 Allocation of 200.0 Gbytes of memory...
 ======================================================================
 ITERATION STEP   1
 CPU time [min]:     0.020                   Wall time [min]:     0.007
 

 SCF control                  : initial
 Damping factor/level shift   : 0.000/0.200
 DIIS [start/end/frequency]   :   2 /*** /  1

 Constructing Fock-matrix...
 
 Pipek-Mezey localization...
 Step  Convergence
   1   1.025272564305
   2   0.322543023343
   3   0.003820743381
   4   0.000000244572
 CPU time [min]:     0.038                   Wall time [min]:     0.008
 
 Constructing local fitting domains...
 Maximum number of atoms in fitting domains:    2
 Average number of atoms in fitting domains:    2.0
 
 First step of Coulomb + first step of exchange...
 Exchange contribution is evaluated for MOs 1 to 7.
   1% done.
  26% done.
  62% done.
 100% done.
 CPU time [min]:     0.076                   Wall time [min]:     0.009
 
 Fitting and assembly step of exchange...
 CPU time [min]:     0.079                   Wall time [min]:     0.009
 
 Second step of Coulomb...
   1% done.
  26% done.
  62% done.
 100% done.
 CPU time [min]:     0.086                   Wall time [min]:     0.009
 
 Gradient norm:      2.0039E-01
 RMS of [F,P]:                                         0.00828385603925
 RMS of difference density:                            0.01401842235585
 Gap [au]:  0.63566533
 ALPHA OCC:   7
 BETA  OCC:   7
 
 ***HARTREE-FOCK ENERGY IN STEP   1 IS       -112.7430401252216399 [AU]
 ======================================================================
 ITERATION STEP   2
 CPU time [min]:     0.094                   Wall time [min]:     0.009
 

 SCF control                  : diis
 Damping factor/level shift   : 0.000/0.000
 DIIS [start/end/frequency]   :   2 /*** /  1

 Constructing Fock-matrix...
 
 Pipek-Mezey localization...
 Step  Convergence
   1   0.082661643197
   2   0.092757656867
   3   0.003442801282
   4   0.000000304361
 CPU time [min]:     0.113                   Wall time [min]:     0.010
 
 Constructing local fitting domains...
 Maximum number of atoms in fitting domains:    2
 Average number of atoms in fitting domains:    2.0
 
 First step of Coulomb + first step of exchange...
 Exchange contribution is evaluated for MOs 1 to 7.
   1% done.
  26% done.
  62% done.
 100% done.
 CPU time [min]:     0.142                   Wall time [min]:     0.011
 
 Fitting and assembly step of exchange...
 CPU time [min]:     0.142                   Wall time [min]:     0.011
 
 Second step of Coulomb...
   1% done.
  26% done.
  62% done.
 100% done.
 CPU time [min]:     0.150                   Wall time [min]:     0.011
 
 Gradient norm:      2.1054E-02
 DIIS is running in this iteration step.
 RMS of [F,P]:                                         0.00091220547046
 RMS of difference density:                            0.00178722071064
 Gap [au]:  0.63259559
 ALPHA OCC:   7
 BETA  OCC:   7
 
 ***HARTREE-FOCK ENERGY IN STEP   2 IS       -112.7518659484220507 [AU]
 
 Step comparison  Energy Drift [au]  DIIS error drift  Gradient drift
        1            8.8258E-03         7.3717E-03       1.7934E-01
        2            1.1275E+02         1.0000E-07       1.7934E-01
 ======================================================================
 ITERATION STEP   3
 CPU time [min]:     0.158                   Wall time [min]:     0.011
 

 SCF control                  : diis
 Damping factor/level shift   : 0.000/0.000
 DIIS [start/end/frequency]   :   2 /*** /  1

 Constructing Fock-matrix...
 
 Pipek-Mezey localization...
 Step  Convergence
   1   0.504166338875
   2   0.081472711345
   3   0.004552443840
   4   0.000000828129
 CPU time [min]:     0.177                   Wall time [min]:     0.012
 
 Constructing local fitting domains...
 Local fitting domains are unchanged.
 
 First step of Coulomb + first step of exchange...
 Exchange contribution is evaluated for MOs 1 to 7.
   1% done.
  26% done.
  62% done.
 100% done.
 CPU time [min]:     0.202                   Wall time [min]:     0.012
 
 Fitting and assembly step of exchange...
 CPU time [min]:     0.202                   Wall time [min]:     0.012
 
 Second step of Coulomb...
   1% done.
  26% done.
  62% done.
 100% done.
 CPU time [min]:     0.209                   Wall time [min]:     0.013
 
 Gradient norm:      4.3084E-03
 DIIS is running in this iteration step.
 RMS of [F,P]:                                         0.00019990036867
 RMS of difference density:                            0.00055807787602
 Gap [au]:  0.63454406
 ALPHA OCC:   7
 BETA  OCC:   7
 
 ***HARTREE-FOCK ENERGY IN STEP   3 IS       -112.7521675598377158 [AU]
 
 Step comparison  Energy Drift [au]  DIIS error drift  Gradient drift
        2            3.0161E-04         7.1231E-04       1.6746E-02
 ======================================================================
 ITERATION STEP   4
 CPU time [min]:     0.216                   Wall time [min]:     0.013
 

 SCF control                  : diis
 Damping factor/level shift   : 0.000/0.000
 DIIS [start/end/frequency]   :   2 /*** /  1

 Constructing Fock-matrix...
 
 Pipek-Mezey localization...
 Step  Convergence
   1   0.598342081558
   2   0.108978631157
   3   0.005078719866
   4   0.000000004710
 CPU time [min]:     0.235                   Wall time [min]:     0.013
 
 Constructing local fitting domains...
 Local fitting domains are unchanged.
 
 First step of Coulomb + first step of exchange...
 Exchange contribution is evaluated for MOs 1 to 7.
   1% done.
  26% done.
  62% done.
 100% done.
 CPU time [min]:     0.260                   Wall time [min]:     0.014
 
 Fitting and assembly step of exchange...
 CPU time [min]:     0.260                   Wall time [min]:     0.014
 
 Second step of Coulomb...
   1% done.
  26% done.
  62% done.
 100% done.
 CPU time [min]:     0.267                   Wall time [min]:     0.014
 
 Gradient norm:      1.1590E-03
 DIIS is running in this iteration step.
 RMS of [F,P]:                                         0.00005113968652
 RMS of difference density:                            0.00007756299316
 Gap [au]:  0.63412271
 ALPHA OCC:   7
 BETA  OCC:   7
 
 ***HARTREE-FOCK ENERGY IN STEP   4 IS       -112.7521848452361439 [AU]
 
 Step comparison  Energy Drift [au]  DIIS error drift  Gradient drift
        3            1.7285E-05         1.4876E-04       3.1494E-03
 ======================================================================
 ITERATION STEP   5
 CPU time [min]:     0.274                   Wall time [min]:     0.014
 

 SCF control                  : diis
 Damping factor/level shift   : 0.000/0.000
 DIIS [start/end/frequency]   :   2 /*** /  1

 Constructing Fock-matrix...
 
 Pipek-Mezey localization...
 Step  Convergence
   1   0.590162296423
   2   0.098947217696
   3   0.001999859901
   4   0.000000008854
   5   0.000000000000
 CPU time [min]:     0.292                   Wall time [min]:     0.015
 
 Constructing local fitting domains...
 Local fitting domains are unchanged.
 
 First step of Coulomb + first step of exchange...
 Exchange contribution is evaluated for MOs 1 to 7.
   1% done.
  26% done.
  62% done.
 100% done.
 CPU time [min]:     0.316                   Wall time [min]:     0.016
 
 Fitting and assembly step of exchange...
 CPU time [min]:     0.316                   Wall time [min]:     0.016
 
 Second step of Coulomb...
   1% done.
  26% done.
  62% done.
 100% done.
 CPU time [min]:     0.324                   Wall time [min]:     0.016
 
 Gradient norm:      5.9929E-04
 DIIS is running in this iteration step.
 RMS of [F,P]:                                         0.00002704786585
 RMS of difference density:                            0.00002555765331
 Gap [au]:  0.63415953
 ALPHA OCC:   7
 BETA  OCC:   7
 
 ***HARTREE-FOCK ENERGY IN STEP   5 IS       -112.7521854273457222 [AU]
 
 Step comparison  Energy Drift [au]  DIIS error drift  Gradient drift
        4            5.8211E-07         2.4092E-05       5.5975E-04
 ======================================================================
 ITERATION STEP   6
 CPU time [min]:     0.330                   Wall time [min]:     0.016
 

 SCF control                  : diis
 Damping factor/level shift   : 0.000/0.000
 DIIS [start/end/frequency]   :   2 /*** /  1

 Constructing Fock-matrix...
 
 Pipek-Mezey localization...
 Step  Convergence
   1   0.552752257909
   2   0.213111740772
   3   0.005421733396
   4   0.000000083175
   5   0.000000000000
 CPU time [min]:     0.349                   Wall time [min]:     0.017
 
 Constructing local fitting domains...
 Local fitting domains are unchanged.
 
 First step of Coulomb + first step of exchange...
 Exchange contribution is evaluated for MOs 1 to 7.
   1% done.
  26% done.
  62% done.
 100% done.
 CPU time [min]:     0.372                   Wall time [min]:     0.017
 
 Fitting and assembly step of exchange...
 CPU time [min]:     0.372                   Wall time [min]:     0.017
 
 Second step of Coulomb...
   1% done.
  26% done.
  62% done.
 100% done.
 CPU time [min]:     0.380                   Wall time [min]:     0.017
 
 Gradient norm:      5.7711E-05
 DIIS is running in this iteration step.
 RMS of [F,P]:                                         0.00000337817546
 RMS of difference density:                            0.00000749196806
 Gap [au]:  0.63418096
 ALPHA OCC:   7
 BETA  OCC:   7
 
 ***HARTREE-FOCK ENERGY IN STEP   6 IS       -112.7521855786604164 [AU]
 
 Step comparison  Energy Drift [au]  DIIS error drift  Gradient drift
        5            1.5131E-07         2.3670E-05       5.4157E-04
 ======================================================================
 ITERATION STEP   7
 CPU time [min]:     0.386                   Wall time [min]:     0.018
 

 SCF control                  : diis
 Damping factor/level shift   : 0.000/0.000
 DIIS [start/end/frequency]   :   2 /*** /  1

 Constructing Fock-matrix...
 
 Pipek-Mezey localization...
 Step  Convergence
   1   0.589246816617
   2   0.144008301775
   3   0.002209041702
   4   0.000000035101
   5   0.000000000000
 CPU time [min]:     0.405                   Wall time [min]:     0.018
 
 Constructing local fitting domains...
 Local fitting domains are unchanged.
 
 First step of Coulomb + first step of exchange...
 Exchange contribution is evaluated for MOs 1 to 7.
   1% done.
  26% done.
  62% done.
 100% done.
 CPU time [min]:     0.430                   Wall time [min]:     0.019
 
 Fitting and assembly step of exchange...
 CPU time [min]:     0.430                   Wall time [min]:     0.019
 
 Second step of Coulomb...
   1% done.
  26% done.
  62% done.
 100% done.
 CPU time [min]:     0.437                   Wall time [min]:     0.019
 
 Gradient norm:      1.4662E-05
 DIIS is running in this iteration step.
 RMS of [F,P]:                                         0.00000056530194
 RMS of difference density:                            0.00000118027160
 Gap [au]:  0.63418051
 ALPHA OCC:   7
 BETA  OCC:   7
 
 ***HARTREE-FOCK ENERGY IN STEP   7 IS       -112.7521855834695543 [AU]
 
 Step comparison  Energy Drift [au]  DIIS error drift  Gradient drift
        6            4.8091E-09         2.8129E-06       4.3049E-05
 ======================================================================
 ITERATION STEP   8
 CPU time [min]:     0.444                   Wall time [min]:     0.019
 

 SCF control                  : diis
 Damping factor/level shift   : 0.000/0.000
 DIIS [start/end/frequency]   :   2 /*** /  1

 Constructing Fock-matrix...
 
 Pipek-Mezey localization...
 Step  Convergence
   1   0.586483316709
   2   0.205817319224
   3   0.001254640608
   4   0.000000002280
   5   0.000000000000
 CPU time [min]:     0.463                   Wall time [min]:     0.020
 
 Constructing local fitting domains...
 Local fitting domains are unchanged.
 
 First step of Coulomb + first step of exchange...
 Exchange contribution is evaluated for MOs 1 to 7.
   1% done.
  26% done.
  62% done.
 100% done.
 CPU time [min]:     0.486                   Wall time [min]:     0.020
 
 Fitting and assembly step of exchange...
 CPU time [min]:     0.486                   Wall time [min]:     0.020
 
 Second step of Coulomb...
   1% done.
  26% done.
  62% done.
 100% done.
 CPU time [min]:     0.493                   Wall time [min]:     0.021
 
 Gradient norm:      2.3062E-06
 DIIS is running in this iteration step.
 RMS of [F,P]:                                         0.00000010877083
 RMS of difference density:                            0.00000026852578
 Gap [au]:  0.63418084
 ALPHA OCC:   7
 BETA  OCC:   7
 
 ***HARTREE-FOCK ENERGY IN STEP   8 IS       -112.7521855836378535 [AU]
 
 Step comparison  Energy Drift [au]  DIIS error drift  Gradient drift
        7            1.6830E-10         4.5653E-07       1.2356E-05
 ======================================================================
 ITERATION STEP   9
 CPU time [min]:     0.500                   Wall time [min]:     0.021
 

 SCF control                  : diis
 Damping factor/level shift   : 0.000/0.000
 DIIS [start/end/frequency]   :   2 /*** /  1

 Constructing Fock-matrix...
 
 Pipek-Mezey localization...
 Step  Convergence
   1   0.597290368367
   2   0.326310484274
   3   0.002002179346
   4   0.000000026209
   5   0.000000000000
 CPU time [min]:     0.519                   Wall time [min]:     0.021
 
 Constructing local fitting domains...
 Local fitting domains are unchanged.
 
 First step of Coulomb + first step of exchange...
 Exchange contribution is evaluated for MOs 1 to 7.
   1% done.
  26% done.
  62% done.
 100% done.
 CPU time [min]:     0.542                   Wall time [min]:     0.022
 
 Fitting and assembly step of exchange...
 CPU time [min]:     0.542                   Wall time [min]:     0.022
 
 Second step of Coulomb...
   1% done.
  26% done.
  62% done.
 100% done.
 CPU time [min]:     0.549                   Wall time [min]:     0.022
 
 Gradient norm:      5.3916E-07
 DIIS is running in this iteration step.
 RMS of [F,P]:                                         0.00000002258390
 RMS of difference density:                            0.00000004234540
 Gap [au]:  0.63418091
 ALPHA OCC:   7
 BETA  OCC:   7
 
 ***HARTREE-FOCK ENERGY IN STEP   9 IS       -112.7521855836435378 [AU]
 
 Step comparison  Energy Drift [au]  DIIS error drift  Gradient drift
        8            5.6843E-12         8.6187E-08       1.7670E-06
 ======================================================================
 
 SUCCESS...
 THE SCF ITERATION HAS CONVERGED!
 
                   A   
 FINAL ALPHA OCC:   7
 FINAL BETA  OCC:   7
 
 ***FINAL HARTREE-FOCK ENERGY:       -112.7521855836435378 [AU]
 
 Orbital energies [au]:
      Irrep         Alpha          Beta
    1   A        -20.679097     -20.679097
    2   A        -11.381632     -11.381632
    3   A         -1.517060      -1.517060
    4   A         -0.806721      -0.806721
    5   A         -0.633065      -0.633065
    6   A         -0.633065      -0.633065
    7   A         -0.556798      -0.556798
 
    8   A          0.077383       0.077383
    9   A          0.077383       0.077383
   10   A          0.081711       0.081711
   11   A          0.105058       0.105058
   12   A          0.165820       0.165820
   13   A          0.165820       0.165820
   14   A          0.225071       0.225071
   15   A          0.247831       0.247831
   16   A          0.247831       0.247831
   17   A          0.335106       0.335106
   18   A          0.434464       0.434464
   19   A          0.434464       0.434464
   20   A          0.519408       0.519408
   21   A          0.599742       0.599742
   22   A          0.599742       0.599742
   23   A          0.696960       0.696960
   24   A          0.748685       0.748685
   25   A          0.748685       0.748685
   26   A          0.923243       0.923243
   27   A          1.050826       1.050826
   28   A          1.054065       1.054065
   29   A          1.054065       1.054065
   30   A          1.203758       1.203758
   31   A          1.203758       1.203758
   32   A          1.428851       1.428851
   33   A          1.650895       1.650895
   34   A          1.650895       1.650895
   35   A          1.660273       1.660273
   36   A          1.660273       1.660273
   37   A          1.961163       1.961163
   38   A          1.961163       1.961163
   39   A          2.116733       2.116733
   40   A          2.204957       2.204957
   41   A          2.966398       2.966398
   42   A          3.553254       3.553254
   43   A          3.553254       3.553254
   44   A          3.671826       3.671826
   45   A          3.671826       3.671826
   46   A          4.012855       4.012855
 
 RETURNING FROM SCF ALGORITHM
 ======================================================================

 ************************ 2023-04-26 04:18:52 *************************
 Executing integ...

 Allocation of 200.0 Gbytes of memory...
 
 
 Basis set information:
 
 Maximum angular momentum: g
 Maximum number of contracted Gaussians:   10
 Maximum number of primitive Gaussians:    14
 Spherical harmonic GTOs are used.
 
 
 Conventional basis set:
 
   1  C  aug-cc-pvdz [ 10s 5p 2d | 4s 3p 2d ]
   2  O  aug-cc-pvdz [ 10s 5p 2d | 4s 3p 2d ]
 
 Basis functions:
            1             2             3             4             5             6             7             8             9            10
    0    1C1s          1C2s          1C3s          1C4s          1C1pz         1C1py         1C1px         1C2pz         1C2py         1C2px     
    1    1C3pz         1C3py         1C3px         1C1d-2        1C1d-1        1C1d0         1C1d+1        1C1d+2        1C2d-2        1C2d-1    
    2    1C2d0         1C2d+1        1C2d+2        2O1s          2O2s          2O3s          2O4s          2O1pz         2O1py         2O1px     
    3    2O2pz         2O2py         2O2px         2O3pz         2O3py         2O3px         2O1d-2        2O1d-1        2O1d0         2O1d+1    
    4    2O1d+2        2O2d-2        2O2d-1        2O2d0         2O2d+1        2O2d+2    
 
 Maximum number of basis functions per shell:   10
 Total number of basis functions:     46
 
 
 Fitting basis set for the SCF calculation:
 
   1  C  def2-qzvpp-ri-jk [ 14s 10p 6d 2f 1g | 10s 8p 5d 1f 1g ]
   2  O  def2-qzvpp-ri-jk [ 14s 10p 6d 2f 1g | 10s 8p 4d 2f 1g ]
 
 Basis functions:
            1             2             3             4             5             6             7             8             9            10
    0    1C1s          1C2s          1C3s          1C4s          1C5s          1C6s          1C7s          1C8s          1C9s          1C10s     
    1    1C1pz         1C1py         1C1px         1C2pz         1C2py         1C2px         1C3pz         1C3py         1C3px         1C4pz     
    2    1C4py         1C4px         1C5pz         1C5py         1C5px         1C6pz         1C6py         1C6px         1C7pz         1C7py     
    3    1C7px         1C8pz         1C8py         1C8px         1C1d-2        1C1d-1        1C1d0         1C1d+1        1C1d+2        1C2d-2    
    4    1C2d-1        1C2d0         1C2d+1        1C2d+2        1C3d-2        1C3d-1        1C3d0         1C3d+1        1C3d+2        1C4d-2    
    5    1C4d-1        1C4d0         1C4d+1        1C4d+2        1C5d-2        1C5d-1        1C5d0         1C5d+1        1C5d+2        1C1f-3    
    6    1C1f-2        1C1f-1        1C1f0         1C1f+1        1C1f+2        1C1f+3        1C1g-4        1C1g-3        1C1g-2        1C1g-1    
    7    1C1g0         1C1g+1        1C1g+2        1C1g+3        1C1g+4        2O1s          2O2s          2O3s          2O4s          2O5s      
    8    2O6s          2O7s          2O8s          2O9s          2O10s         2O1pz         2O1py         2O1px         2O2pz         2O2py     
    9    2O2px         2O3pz         2O3py         2O3px         2O4pz         2O4py         2O4px         2O5pz         2O5py         2O5px     
   10    2O6pz         2O6py         2O6px         2O7pz         2O7py         2O7px         2O8pz         2O8py         2O8px         2O1d-2    
   11    2O1d-1        2O1d0         2O1d+1        2O1d+2        2O2d-2        2O2d-1        2O2d0         2O2d+1        2O2d+2        2O3d-2    
   12    2O3d-1        2O3d0         2O3d+1        2O3d+2        2O4d-2        2O4d-1        2O4d0         2O4d+1        2O4d+2        2O1f-3    
   13    2O1f-2        2O1f-1        2O1f0         2O1f+1        2O1f+2        2O1f+3        2O2f-3        2O2f-2        2O2f-1        2O2f0     
   14    2O2f+1        2O2f+2        2O2f+3        2O1g-4        2O1g-3        2O1g-2        2O1g-1        2O1g0         2O1g+1        2O1g+2    
   15    2O1g+3        2O1g+4    
 
 Maximum number of basis functions per shell:   25
 Total number of basis functions:    152
 
 
 Fitting basis set for the correlation calculation:
 
   1  C  aug-cc-pvdz-ri [ 8s 6p 5d 3f | 8s 6p 5d 3f ]
   2  O  aug-cc-pvdz-ri [ 8s 6p 5d 3f | 8s 6p 5d 3f ]
 
 Basis functions:
            1             2             3             4             5             6             7             8             9            10
    0    1C1s          1C2s          1C3s          1C4s          1C5s          1C6s          1C7s          1C8s          1C1pz         1C1py     
    1    1C1px         1C2pz         1C2py         1C2px         1C3pz         1C3py         1C3px         1C4pz         1C4py         1C4px     
    2    1C5pz         1C5py         1C5px         1C6pz         1C6py         1C6px         1C1d-2        1C1d-1        1C1d0         1C1d+1    
    3    1C1d+2        1C2d-2        1C2d-1        1C2d0         1C2d+1        1C2d+2        1C3d-2        1C3d-1        1C3d0         1C3d+1    
    4    1C3d+2        1C4d-2        1C4d-1        1C4d0         1C4d+1        1C4d+2        1C5d-2        1C5d-1        1C5d0         1C5d+1    
    5    1C5d+2        1C1f-3        1C1f-2        1C1f-1        1C1f0         1C1f+1        1C1f+2        1C1f+3        1C2f-3        1C2f-2    
    6    1C2f-1        1C2f0         1C2f+1        1C2f+2        1C2f+3        1C3f-3        1C3f-2        1C3f-1        1C3f0         1C3f+1    
    7    1C3f+2        1C3f+3        2O1s          2O2s          2O3s          2O4s          2O5s          2O6s          2O7s          2O8s      
    8    2O1pz         2O1py         2O1px         2O2pz         2O2py         2O2px         2O3pz         2O3py         2O3px         2O4pz     
    9    2O4py         2O4px         2O5pz         2O5py         2O5px         2O6pz         2O6py         2O6px         2O1d-2        2O1d-1    
   10    2O1d0         2O1d+1        2O1d+2        2O2d-2        2O2d-1        2O2d0         2O2d+1        2O2d+2        2O3d-2        2O3d-1    
   11    2O3d0         2O3d+1        2O3d+2        2O4d-2        2O4d-1        2O4d0         2O4d+1        2O4d+2        2O5d-2        2O5d-1    
   12    2O5d0         2O5d+1        2O5d+2        2O1f-3        2O1f-2        2O1f-1        2O1f0         2O1f+1        2O1f+2        2O1f+3    
   13    2O2f-3        2O2f-2        2O2f-1        2O2f0         2O2f+1        2O2f+2        2O2f+3        2O3f-3        2O3f-2        2O3f-1    
   14    2O3f0         2O3f+1        2O3f+2        2O3f+3    
 
 Maximum number of basis functions per shell:   25
 Total number of basis functions:    144
 
 
 Old basis set for SCF restart
 
   1  C  def2-svp [ 7s 4p 1d | 3s 2p 1d ]
   2  O  def2-svp [ 7s 4p 1d | 3s 2p 1d ]
 
 Basis functions:
            1             2             3             4             5             6             7             8             9            10
    0    1C1s          1C2s          1C3s          1C1pz         1C1py         1C1px         1C2pz         1C2py         1C2px         1C1d-2    
    1    1C1d-1        1C1d0         1C1d+1        1C1d+2        2O1s          2O2s          2O3s          2O1pz         2O1py         2O1px     
    2    2O2pz         2O2py         2O2px         2O1d-2        2O1d-1        2O1d0         2O1d+1        2O1d+2    
 
 Maximum number of basis functions per shell:   25
 Total number of basis functions:     28
 
 
 Calculation of prescreening integrals...
 CPU time [min]:     0.011                   Wall time [min]:     0.004
 
 Calculation of two-center Coulomb integrals...
   3% done.
  25% done.
  46% done.
  73% done.
 100% done.
 CPU time [min]:     0.048                   Wall time [min]:     0.005
 
 Cholesky decomposition of the inverse of the two-center matrix...
 CPU time [min]:     0.057                   Wall time [min]:     0.005
 
 Calculation of three-center Coulomb integrals...
   1% done.
  26% done.
  62% done.
 100% done.
 CPU time [min]:     0.098                   Wall time [min]:     0.006

 ************************ 2023-04-26 04:18:52 *************************
 Executing drpa...

 Three-index integral transformation and DF-MP2 calculation
 
 Allocation of 200.0 Gbytes of memory...
 Minimal memory requirement for (ai|P) integrals:        0.6 MB

 Calculating (ai|P) integrals...
 Number of integral batches:    1
 Occupied indices per batch:    5
 
 Transforming integrals of batch 1...
 CPU time [min]:     0.018                   Wall time [min]:     0.009
 
 
 
 Reference energy [au]:                      -112.752185583644
 DF-MP2 singlet pair energy [au]:              -0.222541159096
 DF-MP2 triplet pair energy [au]:              -0.080197952529
 DF-SCS-MP2 correlation energy [au]:           -0.293782041758
 DF-SCS-MP2 energy [au]:                     -113.045967625402
 DF-SOS-MP2 correlation energy [au]:           -0.289303506825
 DF-SOS-MP2 energy [au]:                     -113.041489090469
 DF-MP2 correlation energy [au]:               -0.302739111625
 DF-MP2 energy [au]:                         -113.054924695269
 
 ************************ 2023-04-26 04:18:53 *************************
                      Normal termination of mrcc.
 **********************************************************************
