 **********************************************************************
                          MRCC program system
 **********************************************************************
 
                              Written by
     Mihaly Kallay, Peter R. Nagy, David Mester, Laszlo Gyevi-Nagy,
        Jozsef Csoka, P. Bernat Szabo, Zoltan Rolik, Gyula Samu,
     Jozsef Csontos, Bence Hegely, Adam Ganyecz, Istvan Ladjanszki,
       Lorant Szegedy, Bence Ladoczki, Klara Petrov, Mate Farkas,
                    Pal D. Mezei, and Reka A. Horvath
 
        Department of Physical Chemistry and Materials Science
            Budapest University of Technology and Economics
                  Budapest P.O.Box 91, H-1521 Hungary
 
                              www.mrcc.hu
 
                      Release date: March 18, 2022

 ************************ 2023-05-12 22:04:01 *************************
 Executing minp...

 Reading input from MINP...
 
 Input file:
 
calc=DF-CCSD(T)
scftype=rhf
verbosity=3
mem=160GB
symm=off
unit=angs
scfiguess=small
scfmaxit=1000
scfalg=locfit1




    charge=0
core=2

basis=special
aug-cc-pVQZ
aug-cc-pVQZ
bse_CVQZ
aug-cc-pVQZ
aug-cc-pVQZ
aug-cc-pVQZ
aug-cc-pVQZ
aug-cc-pVQZ

basis_sm=special
def2-SVP
def2-SVP
def2-SVP
def2-SVP
def2-SVP
def2-SVP
def2-SVP
def2-SVP

dfbasis_scf=special
def2-QZVPP-RI-JK
def2-QZVPP-RI-JK
def2-QZVPP-RI-JK
def2-QZVPP-RI-JK
def2-QZVPP-RI-JK
def2-QZVPP-RI-JK
def2-QZVPP-RI-JK
def2-QZVPP-RI-JK

dfbasis_cor=special
aug-cc-pVQZ-RI
aug-cc-pVQZ-RI
bse_CVQZ_mp2fit
aug-cc-pVQZ-RI
aug-cc-pVQZ-RI
aug-cc-pVQZ-RI
aug-cc-pVQZ-RI
aug-cc-pVQZ-RI

ecp=special
none
none
none
none
none
none
none
none

unit=angs
geom=xyz
8
C1 O1 Mg1 O5 ECP25
C     0.00000000000    0.00000000000    2.37227197734
O     0.00000000000    0.00000000000    3.51909179200
Mg    0.00000000000    0.00000000000   -0.00772802266
O    -2.12018425659    0.00000000000   -0.00205593177
O     0.00000000000    2.12018425659   -0.00205593177
O     2.12018425659    0.00000000000   -0.00205593177
O     0.00000000000   -2.12018425659   -0.00205593177
O     0.00000000000    0.00000000000   -2.14902768389

ghost=serialno
3-8

 
 
 Checking keyword combinations...
 
 Keywords:
 
 active=none
 agrid=ld0006-ld0590
 agrid_pssp=ld0006-ld0194
 agrid_pssp_sm=ld0006-ld0074
 basis=special
 basis_sm=special
 basopt=off
 bfbasis=none
 bfgsmem=10
 bfgstol=1.0d-3
 bpcompo=0.985
 bpcompv=0.98
 bpdfo=0.985
 bpocc=0.985
 bppdo=0.985
 bppdv=0.98
 bpedo=0.985
 bpedv=0.98
 calc=ccsd(t)
 ccmaxit=50
 ccprog=ccsd
 ccsdalg=dfdirect
 ccsdmkl=seq
 ccsdrest=trf
 ccsdthreads=2
 cctol=6
 charge=0
 cialg=auto
 ciguess=off
 cmpgrp=auto
 comprest=off
 core=2
 corembed=off
 csapprox=off
 cvs=off
 dboc=off
 delocsomofact=
 dendec=cholesky
 dens=0
 dfalg=lineq
 dfbasis_cab=none
 dfbasis_cor=special
 dfbasis_scf=special
 dfbasis_scf_sm=special
 dfintran=drpa
 dft=off
 dhexc=adc(2)
 diag=david
 docc=
 domrad=10.d0
 drpaalg=fit
 dual=off
 dual_df=off
 ecp=special
 edisp=off
 edisp_embed=off
 embed=off
 etemp=300
 epert=none
 eps=
 espcharge=off
 excrad=1.0
 excrad_fin=0.100000000D-02
 fitting=coulomb
 fmm=off
 fmmord=8
 freq=off
 gamma=1.d0
 gauss=spher
 geom=xyz
 gopt=off
 ghost=serialno
 gtol=7
 grdens=off
 gridbatch_cos=2000
 grtol=10
 guido_ct=off
 hamilton=dc
 iface=none
 intalg=auto
 itol=10
 laptol=1.d-2
 lccoporder=trffirst
 lcorthr=normal
 lccrest=off
 lmp2dens=on
 lnoepso=0.d0
 lnoepsv=5e-5
 boysalg=jacobi
 localcc=off
 localcorrsymm=off
 locintrf=disk
 mact=
 maxact=off
 maxdim=100
 maxex=0
 maxmicroit=100
 mcscfiguess=hf
 mem=160gb
 mmprog=
 molden=on
 mpitasks=1
 mulmet=0
 mult=
 nacto=0
 nactv=0
 naf_amp=1.d-2
 naf_cor=off
 naf_scf=off
 nafalg=albe
 naftyp=
 nchol=auto
 ndeps=1e-3
 nstate=1
 nsing=0
 nto=off
 ntrip=0
 occ=
 occri=off
 oniom=off
 oniom_eechg=off
 oniom_pcm=off
 oniom_qcorr=off
 optalg=
 optmaxit=50
 optetol=1e-6
 optex=0
 optgtol=1e-4
 optstol=1e-3
 orblocc=off
 orbloce=off
 orbloco=off
 orblocv=off
 orblocguess=cholesky
 osveps=1e-3
 ovirt=off
 ovltol=1e-7
 ovosnorb=80.0
 pcm=off
 popul=off
 pressure=100000
 pssp=off
 ptfreq=0.0
 ptthreads=2
 qro=off
 qscf=off
 qmmm=off
 redcost_exc=off
 redcost_tddft=off
 refdet=none
 rest=0
 rgrid=log3
 rism=off
 rohfcore=semicanonical
 rohftype=semicanonical
 scfalg=locfit1
 scf_conv=auto
 scfdamp=0.0d0
 scfdamp_mode=off
 scfdamp_end=1000
 scfdamp_dampstep=0.d0
 scfdamp_dtol=0.0d0
 scfdamp_maxfact=0.0d0
 scfdamp_minfact=0.0d0
 scfdiis=on
 scfdiis_dtol=0.0d0
 scfdiis_end=1000
 scfdiis_start=2
 scfdiis_step=1
 scfdiis_watch=off
 scfdiis_wrange=10
 scfdiis_wlimit=5
 scfdiis_delmax=2
 scfdtol=7
 scfext=10
 scfguessdens=
 scfiguess=small
 scfloc=pm
 scflshift=0.20
 scflshift_end=8
 scflshift_dtol=0.0
 scflshift_gaptol=0.20
 scfmaxit=1000
 scftype=rhf
 scftol=6
 scspe=1.d0
 scsph=1.d0
 scsps=1.2d0
 scsps_t=1.2d0
 scspt=0.33333333333333
 scspt_t=0.33333333333333
 scspv=1.d0
 spairtol=1e-4
 sqmprog=
 subminp=top
 symm=0
 talg=occ
 temp=298.15
 test=off
 theodore=off
 tlmo=0.999
 tpao=0.94
 tprint=off
 uncontract=off
 unit=angs
 usedisk=2
 verbosity=3
 wpairtol=0.100000000E-05
 
 Calculating integrals for small-basis SCF...

 ************************ 2023-05-12 22:04:02 *************************
 Executing integ...

 Allocation of 160.0 Gbytes of memory...
 
 
 Number of atoms:                  8
 Charge:                           0
 Number of electrons:             14
 Number of core electrons:         4
 Spin multiplicity:                1
 
                 Cartesian coordinates [bohr]      Atomic mass [AMU]  Z
   1  C     0.00000000    0.00000000    4.48294433    12.000000       6
   2  O     0.00000000    0.00000000    6.65011970    15.994915       8
   3  Mg    0.00000000    0.00000000   -0.01460385     0.000000       0
   4  O    -4.00656758    0.00000000   -0.00388515     0.000000       0
   5  O     0.00000000    4.00656758   -0.00388515     0.000000       0
   6  O     4.00656758    0.00000000   -0.00388515     0.000000       0
   7  O     0.00000000   -4.00656758   -0.00388515     0.000000       0
   8  O     0.00000000    0.00000000   -4.06107376     0.000000       0
 
 This molecule is a prolate symmetric top.
 
 Point group: C4v 
 Computational point group: C1  
 
 Cartesian coordinates in standard orientation [bohr]
   1  C     0.00000000    0.00000000    0.48178815
   2  O     0.00000000    0.00000000    2.64896351
   3  Mg    0.00000000    0.00000000   -4.01576003
   4  O     4.00656758   -0.00000000   -4.00504133
   5  O    -0.00000000   -4.00656758   -4.00504133
   6  O    -4.00656758    0.00000000   -4.00504133
   7  O     0.00000000    4.00656758   -4.00504133
   8  O     0.00000000    0.00000000   -8.06222994
 
 Nuclear repulsion energy [au]:         22.148646010002
 
 
 Basis set information:
 
 Maximum angular momentum: g
 Maximum number of contracted Gaussians:   13
 Maximum number of primitive Gaussians:    16
 Spherical harmonic GTOs are used.
 
 
 Conventional basis set:
 
   1  C  def2-svp [ 7s 4p 1d | 3s 2p 1d ]
   2  O  def2-svp [ 7s 4p 1d | 3s 2p 1d ]
   3  Mg def2-svp [ 10s 7p 1d | 4s 3p 1d ]
   4  O  def2-svp [ 7s 4p 1d | 3s 2p 1d ]
   5  O  def2-svp [ 7s 4p 1d | 3s 2p 1d ]
   6  O  def2-svp [ 7s 4p 1d | 3s 2p 1d ]
   7  O  def2-svp [ 7s 4p 1d | 3s 2p 1d ]
   8  O  def2-svp [ 7s 4p 1d | 3s 2p 1d ]
 
 Basis functions:
            1             2             3             4             5             6             7             8             9            10
    0    1C1s          1C2s          1C3s          1C1pz         1C1py         1C1px         1C2pz         1C2py         1C2px         1C1d-2    
    1    1C1d-1        1C1d0         1C1d+1        1C1d+2        2O1s          2O2s          2O3s          2O1pz         2O1py         2O1px     
    2    2O2pz         2O2py         2O2px         2O1d-2        2O1d-1        2O1d0         2O1d+1        2O1d+2        3Mg1s         3Mg2s     
    3    3Mg3s         3Mg4s         3Mg1pz        3Mg1py        3Mg1px        3Mg2pz        3Mg2py        3Mg2px        3Mg3pz        3Mg3py    
    4    3Mg3px        3Mg1d-2       3Mg1d-1       3Mg1d0        3Mg1d+1       3Mg1d+2       4O1s          4O2s          4O3s          4O1pz     
    5    4O1py         4O1px         4O2pz         4O2py         4O2px         4O1d-2        4O1d-1        4O1d0         4O1d+1        4O1d+2    
    6    5O1s          5O2s          5O3s          5O1pz         5O1py         5O1px         5O2pz         5O2py         5O2px         5O1d-2    
    7    5O1d-1        5O1d0         5O1d+1        5O1d+2        6O1s          6O2s          6O3s          6O1pz         6O1py         6O1px     
    8    6O2pz         6O2py         6O2px         6O1d-2        6O1d-1        6O1d0         6O1d+1        6O1d+2        7O1s          7O2s      
    9    7O3s          7O1pz         7O1py         7O1px         7O2pz         7O2py         7O2px         7O1d-2        7O1d-1        7O1d0     
   10    7O1d+1        7O1d+2        8O1s          8O2s          8O3s          8O1pz         8O1py         8O1px         8O2pz         8O2py     
   11    8O2px         8O1d-2        8O1d-1        8O1d0         8O1d+1        8O1d+2    
 
 Maximum number of basis functions per shell:    9
 Total number of basis functions:    116
 
 
 Fitting basis set for the SCF calculation:
 
   1  C  def2-qzvpp-ri-jk [ 14s 10p 6d 2f 1g | 10s 8p 5d 1f 1g ]
   2  O  def2-qzvpp-ri-jk [ 14s 10p 6d 2f 1g | 10s 8p 4d 2f 1g ]
   3  Mg def2-qzvpp-ri-jk [ 16s 12p 9d 4f 1g | 13s 9p 7d 4f 1g ]
   4  O  def2-qzvpp-ri-jk [ 14s 10p 6d 2f 1g | 10s 8p 4d 2f 1g ]
   5  O  def2-qzvpp-ri-jk [ 14s 10p 6d 2f 1g | 10s 8p 4d 2f 1g ]
   6  O  def2-qzvpp-ri-jk [ 14s 10p 6d 2f 1g | 10s 8p 4d 2f 1g ]
   7  O  def2-qzvpp-ri-jk [ 14s 10p 6d 2f 1g | 10s 8p 4d 2f 1g ]
   8  O  def2-qzvpp-ri-jk [ 14s 10p 6d 2f 1g | 10s 8p 4d 2f 1g ]
 
 Basis functions:
            1             2             3             4             5             6             7             8             9            10
    0    1C1s          1C2s          1C3s          1C4s          1C5s          1C6s          1C7s          1C8s          1C9s          1C10s     
    1    1C1pz         1C1py         1C1px         1C2pz         1C2py         1C2px         1C3pz         1C3py         1C3px         1C4pz     
    2    1C4py         1C4px         1C5pz         1C5py         1C5px         1C6pz         1C6py         1C6px         1C7pz         1C7py     
    3    1C7px         1C8pz         1C8py         1C8px         1C1d-2        1C1d-1        1C1d0         1C1d+1        1C1d+2        1C2d-2    
    4    1C2d-1        1C2d0         1C2d+1        1C2d+2        1C3d-2        1C3d-1        1C3d0         1C3d+1        1C3d+2        1C4d-2    
    5    1C4d-1        1C4d0         1C4d+1        1C4d+2        1C5d-2        1C5d-1        1C5d0         1C5d+1        1C5d+2        1C1f-3    
    6    1C1f-2        1C1f-1        1C1f0         1C1f+1        1C1f+2        1C1f+3        1C1g-4        1C1g-3        1C1g-2        1C1g-1    
    7    1C1g0         1C1g+1        1C1g+2        1C1g+3        1C1g+4        2O1s          2O2s          2O3s          2O4s          2O5s      
    8    2O6s          2O7s          2O8s          2O9s          2O10s         2O1pz         2O1py         2O1px         2O2pz         2O2py     
    9    2O2px         2O3pz         2O3py         2O3px         2O4pz         2O4py         2O4px         2O5pz         2O5py         2O5px     
   10    2O6pz         2O6py         2O6px         2O7pz         2O7py         2O7px         2O8pz         2O8py         2O8px         2O1d-2    
   11    2O1d-1        2O1d0         2O1d+1        2O1d+2        2O2d-2        2O2d-1        2O2d0         2O2d+1        2O2d+2        2O3d-2    
   12    2O3d-1        2O3d0         2O3d+1        2O3d+2        2O4d-2        2O4d-1        2O4d0         2O4d+1        2O4d+2        2O1f-3    
   13    2O1f-2        2O1f-1        2O1f0         2O1f+1        2O1f+2        2O1f+3        2O2f-3        2O2f-2        2O2f-1        2O2f0     
   14    2O2f+1        2O2f+2        2O2f+3        2O1g-4        2O1g-3        2O1g-2        2O1g-1        2O1g0         2O1g+1        2O1g+2    
   15    2O1g+3        2O1g+4        3Mg1s         3Mg2s         3Mg3s         3Mg4s         3Mg5s         3Mg6s         3Mg7s         3Mg8s     
   16    3Mg9s         3Mg10s        3Mg11s        3Mg12s        3Mg13s        3Mg1pz        3Mg1py        3Mg1px        3Mg2pz        3Mg2py    
   17    3Mg2px        3Mg3pz        3Mg3py        3Mg3px        3Mg4pz        3Mg4py        3Mg4px        3Mg5pz        3Mg5py        3Mg5px    
   18    3Mg6pz        3Mg6py        3Mg6px        3Mg7pz        3Mg7py        3Mg7px        3Mg8pz        3Mg8py        3Mg8px        3Mg9pz    
   19    3Mg9py        3Mg9px        3Mg1d-2       3Mg1d-1       3Mg1d0        3Mg1d+1       3Mg1d+2       3Mg2d-2       3Mg2d-1       3Mg2d0    
   20    3Mg2d+1       3Mg2d+2       3Mg3d-2       3Mg3d-1       3Mg3d0        3Mg3d+1       3Mg3d+2       3Mg4d-2       3Mg4d-1       3Mg4d0    
   21    3Mg4d+1       3Mg4d+2       3Mg5d-2       3Mg5d-1       3Mg5d0        3Mg5d+1       3Mg5d+2       3Mg6d-2       3Mg6d-1       3Mg6d0    
   22    3Mg6d+1       3Mg6d+2       3Mg7d-2       3Mg7d-1       3Mg7d0        3Mg7d+1       3Mg7d+2       3Mg1f-3       3Mg1f-2       3Mg1f-1   
   23    3Mg1f0        3Mg1f+1       3Mg1f+2       3Mg1f+3       3Mg2f-3       3Mg2f-2       3Mg2f-1       3Mg2f0        3Mg2f+1       3Mg2f+2   
   24    3Mg2f+3       3Mg3f-3       3Mg3f-2       3Mg3f-1       3Mg3f0        3Mg3f+1       3Mg3f+2       3Mg3f+3       3Mg4f-3       3Mg4f-2   
   25    3Mg4f-1       3Mg4f0        3Mg4f+1       3Mg4f+2       3Mg4f+3       3Mg1g-4       3Mg1g-3       3Mg1g-2       3Mg1g-1       3Mg1g0    
   26    3Mg1g+1       3Mg1g+2       3Mg1g+3       3Mg1g+4       4O1s          4O2s          4O3s          4O4s          4O5s          4O6s      
   27    4O7s          4O8s          4O9s          4O10s         4O1pz         4O1py         4O1px         4O2pz         4O2py         4O2px     
   28    4O3pz         4O3py         4O3px         4O4pz         4O4py         4O4px         4O5pz         4O5py         4O5px         4O6pz     
   29    4O6py         4O6px         4O7pz         4O7py         4O7px         4O8pz         4O8py         4O8px         4O1d-2        4O1d-1    
   30    4O1d0         4O1d+1        4O1d+2        4O2d-2        4O2d-1        4O2d0         4O2d+1        4O2d+2        4O3d-2        4O3d-1    
   31    4O3d0         4O3d+1        4O3d+2        4O4d-2        4O4d-1        4O4d0         4O4d+1        4O4d+2        4O1f-3        4O1f-2    
   32    4O1f-1        4O1f0         4O1f+1        4O1f+2        4O1f+3        4O2f-3        4O2f-2        4O2f-1        4O2f0         4O2f+1    
   33    4O2f+2        4O2f+3        4O1g-4        4O1g-3        4O1g-2        4O1g-1        4O1g0         4O1g+1        4O1g+2        4O1g+3    
   34    4O1g+4        5O1s          5O2s          5O3s          5O4s          5O5s          5O6s          5O7s          5O8s          5O9s      
   35    5O10s         5O1pz         5O1py         5O1px         5O2pz         5O2py         5O2px         5O3pz         5O3py         5O3px     
   36    5O4pz         5O4py         5O4px         5O5pz         5O5py         5O5px         5O6pz         5O6py         5O6px         5O7pz     
   37    5O7py         5O7px         5O8pz         5O8py         5O8px         5O1d-2        5O1d-1        5O1d0         5O1d+1        5O1d+2    
   38    5O2d-2        5O2d-1        5O2d0         5O2d+1        5O2d+2        5O3d-2        5O3d-1        5O3d0         5O3d+1        5O3d+2    
   39    5O4d-2        5O4d-1        5O4d0         5O4d+1        5O4d+2        5O1f-3        5O1f-2        5O1f-1        5O1f0         5O1f+1    
   40    5O1f+2        5O1f+3        5O2f-3        5O2f-2        5O2f-1        5O2f0         5O2f+1        5O2f+2        5O2f+3        5O1g-4    
   41    5O1g-3        5O1g-2        5O1g-1        5O1g0         5O1g+1        5O1g+2        5O1g+3        5O1g+4        6O1s          6O2s      
   42    6O3s          6O4s          6O5s          6O6s          6O7s          6O8s          6O9s          6O10s         6O1pz         6O1py     
   43    6O1px         6O2pz         6O2py         6O2px         6O3pz         6O3py         6O3px         6O4pz         6O4py         6O4px     
   44    6O5pz         6O5py         6O5px         6O6pz         6O6py         6O6px         6O7pz         6O7py         6O7px         6O8pz     
   45    6O8py         6O8px         6O1d-2        6O1d-1        6O1d0         6O1d+1        6O1d+2        6O2d-2        6O2d-1        6O2d0     
   46    6O2d+1        6O2d+2        6O3d-2        6O3d-1        6O3d0         6O3d+1        6O3d+2        6O4d-2        6O4d-1        6O4d0     
   47    6O4d+1        6O4d+2        6O1f-3        6O1f-2        6O1f-1        6O1f0         6O1f+1        6O1f+2        6O1f+3        6O2f-3    
   48    6O2f-2        6O2f-1        6O2f0         6O2f+1        6O2f+2        6O2f+3        6O1g-4        6O1g-3        6O1g-2        6O1g-1    
   49    6O1g0         6O1g+1        6O1g+2        6O1g+3        6O1g+4        7O1s          7O2s          7O3s          7O4s          7O5s      
   50    7O6s          7O7s          7O8s          7O9s          7O10s         7O1pz         7O1py         7O1px         7O2pz         7O2py     
   51    7O2px         7O3pz         7O3py         7O3px         7O4pz         7O4py         7O4px         7O5pz         7O5py         7O5px     
   52    7O6pz         7O6py         7O6px         7O7pz         7O7py         7O7px         7O8pz         7O8py         7O8px         7O1d-2    
   53    7O1d-1        7O1d0         7O1d+1        7O1d+2        7O2d-2        7O2d-1        7O2d0         7O2d+1        7O2d+2        7O3d-2    
   54    7O3d-1        7O3d0         7O3d+1        7O3d+2        7O4d-2        7O4d-1        7O4d0         7O4d+1        7O4d+2        7O1f-3    
   55    7O1f-2        7O1f-1        7O1f0         7O1f+1        7O1f+2        7O1f+3        7O2f-3        7O2f-2        7O2f-1        7O2f0     
   56    7O2f+1        7O2f+2        7O2f+3        7O1g-4        7O1g-3        7O1g-2        7O1g-1        7O1g0         7O1g+1        7O1g+2    
   57    7O1g+3        7O1g+4        8O1s          8O2s          8O3s          8O4s          8O5s          8O6s          8O7s          8O8s      
   58    8O9s          8O10s         8O1pz         8O1py         8O1px         8O2pz         8O2py         8O2px         8O3pz         8O3py     
   59    8O3px         8O4pz         8O4py         8O4px         8O5pz         8O5py         8O5px         8O6pz         8O6py         8O6px     
   60    8O7pz         8O7py         8O7px         8O8pz         8O8py         8O8px         8O1d-2        8O1d-1        8O1d0         8O1d+1    
   61    8O1d+2        8O2d-2        8O2d-1        8O2d0         8O2d+1        8O2d+2        8O3d-2        8O3d-1        8O3d0         8O3d+1    
   62    8O3d+2        8O4d-2        8O4d-1        8O4d0         8O4d+1        8O4d+2        8O1f-3        8O1f-2        8O1f-1        8O1f0     
   63    8O1f+1        8O1f+2        8O1f+3        8O2f-3        8O2f-2        8O2f-1        8O2f0         8O2f+1        8O2f+2        8O2f+3    
   64    8O1g-4        8O1g-3        8O1g-2        8O1g-1        8O1g0         8O1g+1        8O1g+2        8O1g+3        8O1g+4    
 
 Maximum number of basis functions per shell:   35
 Total number of basis functions:    649
 
 
 Initializing the SAD routines for the initial guess...
 Checking the files required for the initial guess...
 Atomic density files have been found for the atoms with the following serial numbers:
  
 Atomic density files have not been found for the atoms with the following serial numbers:
  1 2
 Generating SCFDENSITIES.C.def2-svp.0
 Generating SCFDENSITIES.O.def2-svp.0
 CPU time [min]:     0.119                   Wall time [min]:     0.197
 
 Character table for point group C1:
 
          E  
    A     1
 
 Number of basis functions per irrep:
    A     116
 
 
 Calculation of overlap integrals...
 CPU time [min]:     0.120                   Wall time [min]:     0.197
 
 Calculation of the square root of the overlap matrix...
 Minimum eigenvalue of the overlap matrix: 0.110162E-01
 CPU time [min]:     0.330                   Wall time [min]:     0.204
 
 Calculation of kinetic energy integrals...
 CPU time [min]:     0.331                   Wall time [min]:     0.204
 Calculation of dipole moment integrals...
 CPU time [min]:     0.331                   Wall time [min]:     0.204
 Calculation of nuclear attraction integrals...
 CPU time [min]:     0.334                   Wall time [min]:     0.204
 
 Calculation of prescreening integrals...
 CPU time [min]:     0.386                   Wall time [min]:     0.205
 
 Calculation of two-center Coulomb integrals...
   1% done.
  12% done.
  24% done.
  37% done.
  49% done.
  61% done.
  72% done.
  87% done.
 100% done.
 CPU time [min]:     0.520                   Wall time [min]:     0.209
 
 Cholesky decomposition of the two-center matrix...
 Reciprocal of the condition number:  0.522679E-05
 CPU time [min]:     0.684                   Wall time [min]:     0.225
 
 
 Running small-basis SCF...

 ************************ 2023-05-12 22:04:15 *************************
 Executing scf...

 @scfsetup: integrals calculated directly
            mrcc/integ direct run
 @scfsetup: calculating on full matrices
            not using symmetry adapted basis
 @scfsetup: diis switched on
 @scfsetup: number of steps to extrapolate from  10
 @scfsetup: tolerance in energy deviation    0.100000E-05
            tolerance in density deviation    0.100000E-06
 @scfsetup: maximum number of iterations:1000
 @scfsetup: restricted closed shell hf calc
 @scfsetup: starting scf from superposition of atomic densities
 @scfsetup: occupation set:
            from initial orbitals
 @scfsetup: Parameter-set for SCF acceleration: normal
 @scfsetup: diis runs from iteration:   2
 @scfsetup: diis runs to iteration:1000
 @scfsetup: diis runs in every iteration
 @scfsetup: diiswatch is disabled                   
 @scfsetup: diis dtol criteria to switch on:      0.0000E+00
           (or the iteration number below is reached)
 @scfsetup: static damping scheme
            iteration step criteria to turn damping off: 3
 @scfsetup: dynamic level shifting
            tolarance in HOMO-LUMO gap:  0.200
            tolarance in density deviation:     0.0000E+00
            iteration step criteria to turn level shifting off: 8
 Allocation of 160.0 Gbytes of memory...
 ======================================================================
 ITERATION STEP   1
 CPU time [min]:     0.038                   Wall time [min]:     0.009
 

 SCF control                  : initial
 Damping factor/level shift   : 0.000/0.200
 DIIS [start/end/frequency]   :   2 /*** /  1

 Constructing Fock-matrix...
 
 Pipek-Mezey localization...
 Step  Convergence
   1   0.750381893922
   2   0.101158211685
   3   0.000833166376
   4   0.000000025265
 CPU time [min]:     0.080                   Wall time [min]:     0.010
 
 Constructing local fitting domains...
 Maximum number of atoms in fitting domains:    8
 Average number of atoms in fitting domains:    3.7
 
 First step of Coulomb + first step of exchange...
 Exchange contribution is evaluated for MOs 1 to 7.
   1% done.
  13% done.
  27% done.
  41% done.
  58% done.
  70% done.
  82% done.
 100% done.
 Fitting and assembly step of exchange...
 CPU time [min]:     0.542                   Wall time [min]:     0.037
 
 Second step of Coulomb...
   1% done.
  13% done.
  27% done.
  41% done.
  58% done.
  70% done.
  82% done.
 100% done.
 CPU time [min]:     0.564                   Wall time [min]:     0.037
 
 Gradient norm:      1.6037E+00
 RMS of [F,P]:                                         0.01819780284349
 RMS of difference density:                            0.00779968840072
 Gap [au]:  0.64136347
 ALPHA OCC:   7
 BETA  OCC:   7
 
 ***HARTREE-FOCK ENERGY IN STEP   1 IS       -112.4048872140983519 [AU]
 ======================================================================
 ITERATION STEP   2
 CPU time [min]:     0.587                   Wall time [min]:     0.038
 

 SCF control                  : diis
 Damping factor/level shift   : 0.000/0.000
 DIIS [start/end/frequency]   :   2 /*** /  1

 Constructing Fock-matrix...
 
 Pipek-Mezey localization...
 Step  Convergence
   1   0.061766777997
   2   0.049319794405
   3   0.000322815225
   4   0.000000033979
 CPU time [min]:     0.611                   Wall time [min]:     0.039
 
 Constructing local fitting domains...
 Maximum number of atoms in fitting domains:    8
 Average number of atoms in fitting domains:    3.7
 
 First step of Coulomb + first step of exchange...
 Exchange contribution is evaluated for MOs 1 to 7.
   1% done.
  13% done.
  27% done.
  41% done.
  58% done.
  70% done.
  82% done.
 100% done.
 Fitting and assembly step of exchange...
 CPU time [min]:     0.680                   Wall time [min]:     0.041
 
 Second step of Coulomb...
   1% done.
  13% done.
  27% done.
  41% done.
  58% done.
  70% done.
  82% done.
 100% done.
 CPU time [min]:     0.701                   Wall time [min]:     0.041
 
 Gradient norm:      1.1694E-01
 DIIS is running in this iteration step.
 RMS of [F,P]:                                         0.00226251321316
 RMS of difference density:                            0.00201790197736
 Gap [au]:  0.59037164
 ALPHA OCC:   7
 BETA  OCC:   7
 
 ***HARTREE-FOCK ENERGY IN STEP   2 IS       -112.6341792907276016 [AU]
 
 Step comparison  Energy Drift [au]  DIIS error drift  Gradient drift
        1            2.2929E-01         1.5935E-02       1.4867E+00
        2            1.1263E+02         1.0000E-07       1.4867E+00
 ======================================================================
 ITERATION STEP   3
 CPU time [min]:     0.711                   Wall time [min]:     0.041
 

 SCF control                  : diis
 Damping factor/level shift   : 0.000/0.000
 DIIS [start/end/frequency]   :   2 /*** /  1

 Constructing Fock-matrix...
 
 Pipek-Mezey localization...
 Step  Convergence
   1   0.088826824915
   2   0.087021775809
   3   0.001303027095
   4   0.000008914355
   5   0.000000001239
 CPU time [min]:     0.730                   Wall time [min]:     0.042
 
 Constructing local fitting domains...
 Local fitting domains are unchanged.
 
 First step of Coulomb + first step of exchange...
 Exchange contribution is evaluated for MOs 1 to 7.
   1% done.
  13% done.
  27% done.
  41% done.
  58% done.
  70% done.
  82% done.
 100% done.
 Fitting and assembly step of exchange...
 CPU time [min]:     0.797                   Wall time [min]:     0.044
 
 Second step of Coulomb...
   1% done.
  13% done.
  27% done.
  41% done.
  58% done.
  70% done.
  82% done.
 100% done.
 CPU time [min]:     0.818                   Wall time [min]:     0.044
 
 Gradient norm:      3.4277E-02
 DIIS is running in this iteration step.
 RMS of [F,P]:                                         0.00054015915760
 RMS of difference density:                            0.00045936534934
 Gap [au]:  0.61035158
 ALPHA OCC:   7
 BETA  OCC:   7
 
 ***HARTREE-FOCK ENERGY IN STEP   3 IS       -112.6429224956082322 [AU]
 
 Step comparison  Energy Drift [au]  DIIS error drift  Gradient drift
        2            8.7432E-03         1.7224E-03       8.2664E-02
 ======================================================================
 ITERATION STEP   4
 CPU time [min]:     0.828                   Wall time [min]:     0.045
 

 SCF control                  : diis
 Damping factor/level shift   : 0.000/0.000
 DIIS [start/end/frequency]   :   2 /*** /  1

 Constructing Fock-matrix...
 
 Pipek-Mezey localization...
 Step  Convergence
   1   0.284156467672
   2   0.070100113527
   3   0.000753701571
   4   0.000000007098
   5   0.000000000001
 CPU time [min]:     0.847                   Wall time [min]:     0.045
 
 Constructing local fitting domains...
 Local fitting domains are unchanged.
 
 First step of Coulomb + first step of exchange...
 Exchange contribution is evaluated for MOs 1 to 7.
   1% done.
  13% done.
  27% done.
  41% done.
  58% done.
  70% done.
  82% done.
 100% done.
 Fitting and assembly step of exchange...
 CPU time [min]:     0.915                   Wall time [min]:     0.047
 
 Second step of Coulomb...
   1% done.
  13% done.
  27% done.
  41% done.
  58% done.
  70% done.
  82% done.
 100% done.
 CPU time [min]:     0.935                   Wall time [min]:     0.048
 
 Gradient norm:      7.7061E-03
 DIIS is running in this iteration step.
 RMS of [F,P]:                                         0.00016209357778
 RMS of difference density:                            0.00022060377647
 Gap [au]:  0.60990077
 ALPHA OCC:   7
 BETA  OCC:   7
 
 ***HARTREE-FOCK ENERGY IN STEP   4 IS       -112.6435788953009620 [AU]
 
 Step comparison  Energy Drift [au]  DIIS error drift  Gradient drift
        3            6.5640E-04         3.7807E-04       2.6571E-02
 ======================================================================
 ITERATION STEP   5
 CPU time [min]:     0.946                   Wall time [min]:     0.048
 

 SCF control                  : diis
 Damping factor/level shift   : 0.000/0.000
 DIIS [start/end/frequency]   :   2 /*** /  1

 Constructing Fock-matrix...
 
 Pipek-Mezey localization...
 Step  Convergence
   1   0.303730726403
   2   0.078915688108
   3   0.000878105190
   4   0.000000071715
   5   0.000000000013
   6   0.000000000000
 CPU time [min]:     0.966                   Wall time [min]:     0.049
 
 Constructing local fitting domains...
 Local fitting domains are unchanged.
 
 First step of Coulomb + first step of exchange...
 Exchange contribution is evaluated for MOs 1 to 7.
   1% done.
  13% done.
  27% done.
  41% done.
  58% done.
  70% done.
  82% done.
 100% done.
 Fitting and assembly step of exchange...
 CPU time [min]:     1.034                   Wall time [min]:     0.050
 
 Second step of Coulomb...
   1% done.
  13% done.
  27% done.
  41% done.
  58% done.
  70% done.
  82% done.
 100% done.
 CPU time [min]:     1.054                   Wall time [min]:     0.051
 
 Gradient norm:      5.6198E-03
 DIIS is running in this iteration step.
 RMS of [F,P]:                                         0.00009775831134
 RMS of difference density:                            0.00005612754072
 Gap [au]:  0.60925829
 ALPHA OCC:   7
 BETA  OCC:   7
 
 ***HARTREE-FOCK ENERGY IN STEP   5 IS       -112.6436743667531459 [AU]
 
 Step comparison  Energy Drift [au]  DIIS error drift  Gradient drift
        4            9.5471E-05         6.4335E-05       2.0863E-03
 ======================================================================
 ITERATION STEP   6
 CPU time [min]:     1.063                   Wall time [min]:     0.051
 

 SCF control                  : diis
 Damping factor/level shift   : 0.000/0.000
 DIIS [start/end/frequency]   :   2 /*** /  1

 Constructing Fock-matrix...
 
 Pipek-Mezey localization...
 Step  Convergence
   1   0.547990471101
   2   0.050391979760
   3   0.000813122582
   4   0.000000027615
   5   0.000000000008
   6   0.000000000000
 CPU time [min]:     1.082                   Wall time [min]:     0.052
 
 Constructing local fitting domains...
 Local fitting domains are unchanged.
 
 First step of Coulomb + first step of exchange...
 Exchange contribution is evaluated for MOs 1 to 7.
   1% done.
  13% done.
  27% done.
  41% done.
  58% done.
  70% done.
  82% done.
 100% done.
 Fitting and assembly step of exchange...
 CPU time [min]:     1.150                   Wall time [min]:     0.054
 
 Second step of Coulomb...
   1% done.
  13% done.
  27% done.
  41% done.
  58% done.
  70% done.
  82% done.
 100% done.
 CPU time [min]:     1.170                   Wall time [min]:     0.054
 
 Gradient norm:      7.3636E-04
 DIIS is running in this iteration step.
 RMS of [F,P]:                                         0.00001645161204
 RMS of difference density:                            0.00002761258427
 Gap [au]:  0.60937165
 ALPHA OCC:   7
 BETA  OCC:   7
 
 ***HARTREE-FOCK ENERGY IN STEP   6 IS       -112.6436869212604677 [AU]
 
 Step comparison  Energy Drift [au]  DIIS error drift  Gradient drift
        5            1.2555E-05         8.1307E-05       4.8835E-03
 ======================================================================
 ITERATION STEP   7
 CPU time [min]:     1.199                   Wall time [min]:     0.055
 

 SCF control                  : diis
 Damping factor/level shift   : 0.000/0.000
 DIIS [start/end/frequency]   :   2 /*** /  1

 Constructing Fock-matrix...
 
 Pipek-Mezey localization...
 Step  Convergence
   1   0.560264755308
   2   0.060154982724
   3   0.000835193341
   4   0.000000048955
   5   0.000000000012
   6   0.000000000000
 CPU time [min]:     1.218                   Wall time [min]:     0.056
 
 Constructing local fitting domains...
 Local fitting domains are unchanged.
 
 First step of Coulomb + first step of exchange...
 Exchange contribution is evaluated for MOs 1 to 7.
   1% done.
  13% done.
  27% done.
  41% done.
  58% done.
  70% done.
  82% done.
 100% done.
 Fitting and assembly step of exchange...
 CPU time [min]:     1.286                   Wall time [min]:     0.058
 
 Second step of Coulomb...
   1% done.
  13% done.
  27% done.
  41% done.
  58% done.
  70% done.
  82% done.
 100% done.
 CPU time [min]:     1.306                   Wall time [min]:     0.058
 
 Gradient norm:      2.0945E-04
 DIIS is running in this iteration step.
 RMS of [F,P]:                                         0.00000351066191
 RMS of difference density:                            0.00000415628009
 Gap [au]:  0.60932172
 ALPHA OCC:   7
 BETA  OCC:   7
 
 ***HARTREE-FOCK ENERGY IN STEP   7 IS       -112.6436880654747199 [AU]
 
 Step comparison  Energy Drift [au]  DIIS error drift  Gradient drift
        6            1.1442E-06         1.2941E-05       5.2691E-04
 ======================================================================
 ITERATION STEP   8
 CPU time [min]:     1.315                   Wall time [min]:     0.058
 

 SCF control                  : diis
 Damping factor/level shift   : 0.000/0.000
 DIIS [start/end/frequency]   :   2 /*** /  1

 Constructing Fock-matrix...
 
 Pipek-Mezey localization...
 Step  Convergence
   1   0.556427571820
   2   0.061685186742
   3   0.000091206410
   4   0.000000016856
   5   0.000000000009
   6   0.000000000000
 CPU time [min]:     1.334                   Wall time [min]:     0.059
 
 Constructing local fitting domains...
 Local fitting domains are unchanged.
 
 First step of Coulomb + first step of exchange...
 Exchange contribution is evaluated for MOs 1 to 7.
   1% done.
  13% done.
  27% done.
  41% done.
  58% done.
  70% done.
  82% done.
 100% done.
 Fitting and assembly step of exchange...
 CPU time [min]:     1.402                   Wall time [min]:     0.061
 
 Second step of Coulomb...
   1% done.
  13% done.
  27% done.
  41% done.
  58% done.
  70% done.
  82% done.
 100% done.
 CPU time [min]:     1.422                   Wall time [min]:     0.061
 
 Gradient norm:      2.4282E-05
 DIIS is running in this iteration step.
 RMS of [F,P]:                                         0.00000044515827
 RMS of difference density:                            0.00000054958582
 Gap [au]:  0.60932821
 ALPHA OCC:   7
 BETA  OCC:   7
 
 ***HARTREE-FOCK ENERGY IN STEP   8 IS       -112.6436880959633555 [AU]
 
 Step comparison  Energy Drift [au]  DIIS error drift  Gradient drift
        7            3.0489E-08         3.0655E-06       1.8517E-04
 ======================================================================
 ITERATION STEP   9
 CPU time [min]:     1.432                   Wall time [min]:     0.062
 

 SCF control                  : diis
 Damping factor/level shift   : 0.000/0.000
 DIIS [start/end/frequency]   :   2 /*** /  1

 Constructing Fock-matrix...
 
 Pipek-Mezey localization...
 Step  Convergence
   1   0.562126252694
   2   0.062768155210
   3   0.000015000882
   4   0.000000001579
   5   0.000000000000
 CPU time [min]:     1.451                   Wall time [min]:     0.062
 
 Constructing local fitting domains...
 Local fitting domains are unchanged.
 
 First step of Coulomb + first step of exchange...
 Exchange contribution is evaluated for MOs 1 to 7.
   1% done.
  13% done.
  27% done.
  41% done.
  58% done.
  70% done.
  82% done.
 100% done.
 Fitting and assembly step of exchange...
 CPU time [min]:     1.518                   Wall time [min]:     0.064
 
 Second step of Coulomb...
   1% done.
  13% done.
  27% done.
  41% done.
  58% done.
  70% done.
  82% done.
 100% done.
 CPU time [min]:     1.539                   Wall time [min]:     0.065
 
 Gradient norm:      2.5976E-06
 DIIS is running in this iteration step.
 RMS of [F,P]:                                         0.00000005976751
 RMS of difference density:                            0.00000008984893
 Gap [au]:  0.60932710
 ALPHA OCC:   7
 BETA  OCC:   7
 
 ***HARTREE-FOCK ENERGY IN STEP   9 IS       -112.6436880965129177 [AU]
 
 Step comparison  Energy Drift [au]  DIIS error drift  Gradient drift
        8            5.4956E-10         3.8539E-07       2.1684E-05
 
 The SCF iteration has converged.
 An extra iteration will be performed to calculate accurate SCF energy.
 
 ======================================================================
 ITERATION STEP  10
 CPU time [min]:     1.548                   Wall time [min]:     0.065
 

 SCF control                  : diis
 Damping factor/level shift   : 0.000/0.000
 DIIS [start/end/frequency]   :   2 /*** /  1

 Constructing Fock-matrix...
 
 Pipek-Mezey localization...
 Step  Convergence
   1   0.586205834560
   2   0.096381145728
   3   0.000461689832
   4   0.000000015749
   5   0.000000000002
   6   0.000000000000
 CPU time [min]:     1.569                   Wall time [min]:     0.065
 
 Constructing local fitting domains...
 Maximum number of atoms in fitting domains:    8
 Average number of atoms in fitting domains:    7.9
 
 First step of Coulomb + first step of exchange...
 Exchange contribution is evaluated for MOs 1 to 7.
   1% done.
  13% done.
  27% done.
  41% done.
  58% done.
  70% done.
  82% done.
 100% done.
 Fitting and assembly step of exchange...
 CPU time [min]:     1.653                   Wall time [min]:     0.068
 
 Second step of Coulomb...
   1% done.
  13% done.
  27% done.
  41% done.
  58% done.
  70% done.
  82% done.
 100% done.
 CPU time [min]:     1.673                   Wall time [min]:     0.068
 
 Gradient norm:      2.2431E-05
 RMS of [F,P]:                                         0.00000037317590
 RMS of difference density:                            0.00000035118160
 Gap [au]:  0.60932780
 ALPHA OCC:   7
 BETA  OCC:   7
 
 ***HARTREE-FOCK ENERGY IN STEP  10 IS       -112.6436913633494328 [AU]
 
 Step comparison  Energy Drift [au]  DIIS error drift  Gradient drift
        9            3.2668E-06        -3.1341E-07      -1.9834E-05
 Warning! The DIIS error goes uphill (with respect to previous step).
 Warning! The DIIS error goes uphill (with respect to step   9 ).
 Warning! The gradient goes uphill (with respect to previous step).
 Warning! The gradient goes uphill (with respect to step   9 ).
 ======================================================================
 
 SUCCESS...
 THE SCF ITERATION HAS CONVERGED!
 
                   A   
 FINAL ALPHA OCC:   7
 FINAL BETA  OCC:   7
 
 ***FINAL HARTREE-FOCK ENERGY:       -112.6436913633494328 [AU]
 
 Orbital energies [au]:
      Irrep         Alpha          Beta
    1   A        -20.668714     -20.668714
    2   A        -11.379124     -11.379124
    3   A         -1.497540      -1.497540
    4   A         -0.796970      -0.796970
    5   A         -0.635990      -0.635990
    6   A         -0.635990      -0.635990
    7   A         -0.554051      -0.554051
 
    8   A          0.055277       0.055277
    9   A          0.097879       0.097879
   10   A          0.097879       0.097879
   11   A          0.149805       0.149805
   12   A          0.170169       0.170169
   13   A          0.170169       0.170169
   14   A          0.223019       0.223019
   15   A          0.289668       0.289668
   16   A          0.327725       0.327725
   17   A          0.351675       0.351675
   18   A          0.400137       0.400137
   19   A          0.400137       0.400137
   20   A          0.451913       0.451913
   21   A          0.496316       0.496316
   22   A          0.496316       0.496316
   23   A          0.565627       0.565627
   24   A          0.565627       0.565627
   25   A          0.573254       0.573254
   26   A          0.615049       0.615049
   27   A          0.706342       0.706342
   28   A          0.706342       0.706342
   29   A          0.707130       0.707130
   30   A          0.771188       0.771188
   31   A          0.785495       0.785495
   32   A          0.792949       0.792949
   33   A          0.795744       0.795744
   34   A          0.795744       0.795744
   35   A          0.825175       0.825175
   36   A          0.887181       0.887181
   37   A          0.887181       0.887181
   38   A          0.895464       0.895464
   39   A          0.909623       0.909623
   40   A          0.969279       0.969279
   41   A          1.008845       1.008845
   42   A          1.008845       1.008845
   43   A          1.031867       1.031867
   44   A          1.057943       1.057943
   45   A          1.075458       1.075458
   46   A          1.127029       1.127029
   47   A          1.127029       1.127029
   48   A          1.204854       1.204854
   49   A          1.314443       1.314443
   50   A          1.314443       1.314443
   51   A          1.698547       1.698547
   52   A          1.894513       1.894513
   53   A          1.898775       1.898775
   54   A          1.969074       1.969074
   55   A          1.969074       1.969074
   56   A          2.236053       2.236053
   57   A          2.287513       2.287513
   58   A          2.287513       2.287513
   59   A          2.372387       2.372387
   60   A          2.388679       2.388679
   61   A          2.742802       2.742802
   62   A          2.959157       2.959157
   63   A          2.960655       2.960655
   64   A          3.303428       3.303428
   65   A          3.534148       3.534148
   66   A          3.534148       3.534148
   67   A          4.013063       4.013063
   68   A          4.200383       4.200383
   69   A          4.200384       4.200384
   70   A          4.200430       4.200430
   71   A          4.200430       4.200430
   72   A          4.200669       4.200669
   73   A          4.200816       4.200816
   74   A          4.200917       4.200917
   75   A          4.200917       4.200917
   76   A          4.200947       4.200947
   77   A          4.200956       4.200956
   78   A          4.201145       4.201145
   79   A          4.202278       4.202278
   80   A          4.202278       4.202278
   81   A          4.207835       4.207835
   82   A          4.207835       4.207835
   83   A          4.213816       4.213816
   84   A          4.252597       4.252597
   85   A          4.255078       4.255078
   86   A          4.271782       4.271782
   87   A          4.271782       4.271782
   88   A          4.278704       4.278704
   89   A          4.292887       4.292887
   90   A          4.310767       4.310767
   91   A          4.310767       4.310767
   92   A          4.320616       4.320616
   93   A          5.318170       5.318170
   94   A          5.359184       5.359184
   95   A          5.359184       5.359184
   96   A          5.421358       5.421358
   97   A          5.428261       5.428261
   98   A          5.428261       5.428261
   99   A          5.436584       5.436584
  100   A          5.447678       5.447678
  101   A          5.566442       5.566442
  102   A          5.566442       5.566442
  103   A          5.571375       5.571375
  104   A          5.594156       5.594156
  105   A          5.594156       5.594156
  106   A          5.640467       5.640467
  107   A          5.696922       5.696922
  108   A          9.057032       9.057032
  109   A          9.057032       9.057032
  110   A          9.086029       9.086029
  111   A         34.416634      34.416634
  112   A         34.416634      34.416634
  113   A         34.487801      34.487801
  114   A         34.589723      34.589723
  115   A         34.603085      34.603085
  116   A         74.875553      74.875553
 
 RETURNING FROM SCF ALGORITHM
 ======================================================================

 ************************ 2023-05-12 22:04:20 *************************
 Executing integ...

 Allocation of 160.0 Gbytes of memory...
 
 
 Number of atoms:                  8
 Charge:                           0
 Number of electrons:             14
 Number of core electrons:         4
 Spin multiplicity:                1
 
                 Cartesian coordinates [bohr]      Atomic mass [AMU]  Z
   1  C     0.00000000    0.00000000    4.48294433    12.000000       6
   2  O     0.00000000    0.00000000    6.65011970    15.994915       8
   3  Mg    0.00000000    0.00000000   -0.01460385     0.000000       0
   4  O    -4.00656758    0.00000000   -0.00388515     0.000000       0
   5  O     0.00000000    4.00656758   -0.00388515     0.000000       0
   6  O     4.00656758    0.00000000   -0.00388515     0.000000       0
   7  O     0.00000000   -4.00656758   -0.00388515     0.000000       0
   8  O     0.00000000    0.00000000   -4.06107376     0.000000       0
 
 This molecule is a prolate symmetric top.
 
 Point group: C4v 
 Computational point group: C1  
 
 Cartesian coordinates in standard orientation [bohr]
   1  C     0.00000000    0.00000000    0.48178815
   2  O     0.00000000    0.00000000    2.64896351
   3  Mg    0.00000000    0.00000000   -4.01576003
   4  O     4.00656758   -0.00000000   -4.00504133
   5  O    -0.00000000   -4.00656758   -4.00504133
   6  O    -4.00656758    0.00000000   -4.00504133
   7  O     0.00000000    4.00656758   -4.00504133
   8  O     0.00000000    0.00000000   -8.06222994
 
 Nuclear repulsion energy [au]:         22.148646010002
 
 
 Basis set information:
 
 Maximum angular momentum: h
 Maximum number of contracted Gaussians:   15
 Maximum number of primitive Gaussians:    19
 Spherical harmonic GTOs are used.
 
 
 Conventional basis set:
 
   1  C  aug-cc-pvqz [ 13s 7p 4d 3f 2g | 6s 5p 4d 3f 2g ]
   2  O  aug-cc-pvqz [ 13s 7p 4d 3f 2g | 6s 5p 4d 3f 2g ]
   3  Mg bse_cvqz [ 19s 15p 6d 4f 2g | 9s 8p 6d 4f 2g ]
   4  O  aug-cc-pvqz [ 13s 7p 4d 3f 2g | 6s 5p 4d 3f 2g ]
   5  O  aug-cc-pvqz [ 13s 7p 4d 3f 2g | 6s 5p 4d 3f 2g ]
   6  O  aug-cc-pvqz [ 13s 7p 4d 3f 2g | 6s 5p 4d 3f 2g ]
   7  O  aug-cc-pvqz [ 13s 7p 4d 3f 2g | 6s 5p 4d 3f 2g ]
   8  O  aug-cc-pvqz [ 13s 7p 4d 3f 2g | 6s 5p 4d 3f 2g ]
 
 Basis functions:
            1             2             3             4             5             6             7             8             9            10
    0    1C1s          1C2s          1C3s          1C4s          1C5s          1C6s          1C1pz         1C1py         1C1px         1C2pz     
    1    1C2py         1C2px         1C3pz         1C3py         1C3px         1C4pz         1C4py         1C4px         1C5pz         1C5py     
    2    1C5px         1C1d-2        1C1d-1        1C1d0         1C1d+1        1C1d+2        1C2d-2        1C2d-1        1C2d0         1C2d+1    
    3    1C2d+2        1C3d-2        1C3d-1        1C3d0         1C3d+1        1C3d+2        1C4d-2        1C4d-1        1C4d0         1C4d+1    
    4    1C4d+2        1C1f-3        1C1f-2        1C1f-1        1C1f0         1C1f+1        1C1f+2        1C1f+3        1C2f-3        1C2f-2    
    5    1C2f-1        1C2f0         1C2f+1        1C2f+2        1C2f+3        1C3f-3        1C3f-2        1C3f-1        1C3f0         1C3f+1    
    6    1C3f+2        1C3f+3        1C1g-4        1C1g-3        1C1g-2        1C1g-1        1C1g0         1C1g+1        1C1g+2        1C1g+3    
    7    1C1g+4        1C2g-4        1C2g-3        1C2g-2        1C2g-1        1C2g0         1C2g+1        1C2g+2        1C2g+3        1C2g+4    
    8    2O1s          2O2s          2O3s          2O4s          2O5s          2O6s          2O1pz         2O1py         2O1px         2O2pz     
    9    2O2py         2O2px         2O3pz         2O3py         2O3px         2O4pz         2O4py         2O4px         2O5pz         2O5py     
   10    2O5px         2O1d-2        2O1d-1        2O1d0         2O1d+1        2O1d+2        2O2d-2        2O2d-1        2O2d0         2O2d+1    
   11    2O2d+2        2O3d-2        2O3d-1        2O3d0         2O3d+1        2O3d+2        2O4d-2        2O4d-1        2O4d0         2O4d+1    
   12    2O4d+2        2O1f-3        2O1f-2        2O1f-1        2O1f0         2O1f+1        2O1f+2        2O1f+3        2O2f-3        2O2f-2    
   13    2O2f-1        2O2f0         2O2f+1        2O2f+2        2O2f+3        2O3f-3        2O3f-2        2O3f-1        2O3f0         2O3f+1    
   14    2O3f+2        2O3f+3        2O1g-4        2O1g-3        2O1g-2        2O1g-1        2O1g0         2O1g+1        2O1g+2        2O1g+3    
   15    2O1g+4        2O2g-4        2O2g-3        2O2g-2        2O2g-1        2O2g0         2O2g+1        2O2g+2        2O2g+3        2O2g+4    
   16    3Mg1s         3Mg2s         3Mg3s         3Mg4s         3Mg5s         3Mg6s         3Mg7s         3Mg8s         3Mg9s         3Mg1pz    
   17    3Mg1py        3Mg1px        3Mg2pz        3Mg2py        3Mg2px        3Mg3pz        3Mg3py        3Mg3px        3Mg4pz        3Mg4py    
   18    3Mg4px        3Mg5pz        3Mg5py        3Mg5px        3Mg6pz        3Mg6py        3Mg6px        3Mg7pz        3Mg7py        3Mg7px    
   19    3Mg8pz        3Mg8py        3Mg8px        3Mg1d-2       3Mg1d-1       3Mg1d0        3Mg1d+1       3Mg1d+2       3Mg2d-2       3Mg2d-1   
   20    3Mg2d0        3Mg2d+1       3Mg2d+2       3Mg3d-2       3Mg3d-1       3Mg3d0        3Mg3d+1       3Mg3d+2       3Mg4d-2       3Mg4d-1   
   21    3Mg4d0        3Mg4d+1       3Mg4d+2       3Mg5d-2       3Mg5d-1       3Mg5d0        3Mg5d+1       3Mg5d+2       3Mg6d-2       3Mg6d-1   
   22    3Mg6d0        3Mg6d+1       3Mg6d+2       3Mg1f-3       3Mg1f-2       3Mg1f-1       3Mg1f0        3Mg1f+1       3Mg1f+2       3Mg1f+3   
   23    3Mg2f-3       3Mg2f-2       3Mg2f-1       3Mg2f0        3Mg2f+1       3Mg2f+2       3Mg2f+3       3Mg3f-3       3Mg3f-2       3Mg3f-1   
   24    3Mg3f0        3Mg3f+1       3Mg3f+2       3Mg3f+3       3Mg4f-3       3Mg4f-2       3Mg4f-1       3Mg4f0        3Mg4f+1       3Mg4f+2   
   25    3Mg4f+3       3Mg1g-4       3Mg1g-3       3Mg1g-2       3Mg1g-1       3Mg1g0        3Mg1g+1       3Mg1g+2       3Mg1g+3       3Mg1g+4   
   26    3Mg2g-4       3Mg2g-3       3Mg2g-2       3Mg2g-1       3Mg2g0        3Mg2g+1       3Mg2g+2       3Mg2g+3       3Mg2g+4       4O1s      
   27    4O2s          4O3s          4O4s          4O5s          4O6s          4O1pz         4O1py         4O1px         4O2pz         4O2py     
   28    4O2px         4O3pz         4O3py         4O3px         4O4pz         4O4py         4O4px         4O5pz         4O5py         4O5px     
   29    4O1d-2        4O1d-1        4O1d0         4O1d+1        4O1d+2        4O2d-2        4O2d-1        4O2d0         4O2d+1        4O2d+2    
   30    4O3d-2        4O3d-1        4O3d0         4O3d+1        4O3d+2        4O4d-2        4O4d-1        4O4d0         4O4d+1        4O4d+2    
   31    4O1f-3        4O1f-2        4O1f-1        4O1f0         4O1f+1        4O1f+2        4O1f+3        4O2f-3        4O2f-2        4O2f-1    
   32    4O2f0         4O2f+1        4O2f+2        4O2f+3        4O3f-3        4O3f-2        4O3f-1        4O3f0         4O3f+1        4O3f+2    
   33    4O3f+3        4O1g-4        4O1g-3        4O1g-2        4O1g-1        4O1g0         4O1g+1        4O1g+2        4O1g+3        4O1g+4    
   34    4O2g-4        4O2g-3        4O2g-2        4O2g-1        4O2g0         4O2g+1        4O2g+2        4O2g+3        4O2g+4        5O1s      
   35    5O2s          5O3s          5O4s          5O5s          5O6s          5O1pz         5O1py         5O1px         5O2pz         5O2py     
   36    5O2px         5O3pz         5O3py         5O3px         5O4pz         5O4py         5O4px         5O5pz         5O5py         5O5px     
   37    5O1d-2        5O1d-1        5O1d0         5O1d+1        5O1d+2        5O2d-2        5O2d-1        5O2d0         5O2d+1        5O2d+2    
   38    5O3d-2        5O3d-1        5O3d0         5O3d+1        5O3d+2        5O4d-2        5O4d-1        5O4d0         5O4d+1        5O4d+2    
   39    5O1f-3        5O1f-2        5O1f-1        5O1f0         5O1f+1        5O1f+2        5O1f+3        5O2f-3        5O2f-2        5O2f-1    
   40    5O2f0         5O2f+1        5O2f+2        5O2f+3        5O3f-3        5O3f-2        5O3f-1        5O3f0         5O3f+1        5O3f+2    
   41    5O3f+3        5O1g-4        5O1g-3        5O1g-2        5O1g-1        5O1g0         5O1g+1        5O1g+2        5O1g+3        5O1g+4    
   42    5O2g-4        5O2g-3        5O2g-2        5O2g-1        5O2g0         5O2g+1        5O2g+2        5O2g+3        5O2g+4        6O1s      
   43    6O2s          6O3s          6O4s          6O5s          6O6s          6O1pz         6O1py         6O1px         6O2pz         6O2py     
   44    6O2px         6O3pz         6O3py         6O3px         6O4pz         6O4py         6O4px         6O5pz         6O5py         6O5px     
   45    6O1d-2        6O1d-1        6O1d0         6O1d+1        6O1d+2        6O2d-2        6O2d-1        6O2d0         6O2d+1        6O2d+2    
   46    6O3d-2        6O3d-1        6O3d0         6O3d+1        6O3d+2        6O4d-2        6O4d-1        6O4d0         6O4d+1        6O4d+2    
   47    6O1f-3        6O1f-2        6O1f-1        6O1f0         6O1f+1        6O1f+2        6O1f+3        6O2f-3        6O2f-2        6O2f-1    
   48    6O2f0         6O2f+1        6O2f+2        6O2f+3        6O3f-3        6O3f-2        6O3f-1        6O3f0         6O3f+1        6O3f+2    
   49    6O3f+3        6O1g-4        6O1g-3        6O1g-2        6O1g-1        6O1g0         6O1g+1        6O1g+2        6O1g+3        6O1g+4    
   50    6O2g-4        6O2g-3        6O2g-2        6O2g-1        6O2g0         6O2g+1        6O2g+2        6O2g+3        6O2g+4        7O1s      
   51    7O2s          7O3s          7O4s          7O5s          7O6s          7O1pz         7O1py         7O1px         7O2pz         7O2py     
   52    7O2px         7O3pz         7O3py         7O3px         7O4pz         7O4py         7O4px         7O5pz         7O5py         7O5px     
   53    7O1d-2        7O1d-1        7O1d0         7O1d+1        7O1d+2        7O2d-2        7O2d-1        7O2d0         7O2d+1        7O2d+2    
   54    7O3d-2        7O3d-1        7O3d0         7O3d+1        7O3d+2        7O4d-2        7O4d-1        7O4d0         7O4d+1        7O4d+2    
   55    7O1f-3        7O1f-2        7O1f-1        7O1f0         7O1f+1        7O1f+2        7O1f+3        7O2f-3        7O2f-2        7O2f-1    
   56    7O2f0         7O2f+1        7O2f+2        7O2f+3        7O3f-3        7O3f-2        7O3f-1        7O3f0         7O3f+1        7O3f+2    
   57    7O3f+3        7O1g-4        7O1g-3        7O1g-2        7O1g-1        7O1g0         7O1g+1        7O1g+2        7O1g+3        7O1g+4    
   58    7O2g-4        7O2g-3        7O2g-2        7O2g-1        7O2g0         7O2g+1        7O2g+2        7O2g+3        7O2g+4        8O1s      
   59    8O2s          8O3s          8O4s          8O5s          8O6s          8O1pz         8O1py         8O1px         8O2pz         8O2py     
   60    8O2px         8O3pz         8O3py         8O3px         8O4pz         8O4py         8O4px         8O5pz         8O5py         8O5px     
   61    8O1d-2        8O1d-1        8O1d0         8O1d+1        8O1d+2        8O2d-2        8O2d-1        8O2d0         8O2d+1        8O2d+2    
   62    8O3d-2        8O3d-1        8O3d0         8O3d+1        8O3d+2        8O4d-2        8O4d-1        8O4d0         8O4d+1        8O4d+2    
   63    8O1f-3        8O1f-2        8O1f-1        8O1f0         8O1f+1        8O1f+2        8O1f+3        8O2f-3        8O2f-2        8O2f-1    
   64    8O2f0         8O2f+1        8O2f+2        8O2f+3        8O3f-3        8O3f-2        8O3f-1        8O3f0         8O3f+1        8O3f+2    
   65    8O3f+3        8O1g-4        8O1g-3        8O1g-2        8O1g-1        8O1g0         8O1g+1        8O1g+2        8O1g+3        8O1g+4    
   66    8O2g-4        8O2g-3        8O2g-2        8O2g-1        8O2g0         8O2g+1        8O2g+2        8O2g+3        8O2g+4    
 
 Maximum number of basis functions per shell:   30
 Total number of basis functions:    669
 
 
 Fitting basis set for the SCF calculation:
 
   1  C  def2-qzvpp-ri-jk [ 14s 10p 6d 2f 1g | 10s 8p 5d 1f 1g ]
   2  O  def2-qzvpp-ri-jk [ 14s 10p 6d 2f 1g | 10s 8p 4d 2f 1g ]
   3  Mg def2-qzvpp-ri-jk [ 16s 12p 9d 4f 1g | 13s 9p 7d 4f 1g ]
   4  O  def2-qzvpp-ri-jk [ 14s 10p 6d 2f 1g | 10s 8p 4d 2f 1g ]
   5  O  def2-qzvpp-ri-jk [ 14s 10p 6d 2f 1g | 10s 8p 4d 2f 1g ]
   6  O  def2-qzvpp-ri-jk [ 14s 10p 6d 2f 1g | 10s 8p 4d 2f 1g ]
   7  O  def2-qzvpp-ri-jk [ 14s 10p 6d 2f 1g | 10s 8p 4d 2f 1g ]
   8  O  def2-qzvpp-ri-jk [ 14s 10p 6d 2f 1g | 10s 8p 4d 2f 1g ]
 
 Basis functions:
            1             2             3             4             5             6             7             8             9            10
    0    1C1s          1C2s          1C3s          1C4s          1C5s          1C6s          1C7s          1C8s          1C9s          1C10s     
    1    1C1pz         1C1py         1C1px         1C2pz         1C2py         1C2px         1C3pz         1C3py         1C3px         1C4pz     
    2    1C4py         1C4px         1C5pz         1C5py         1C5px         1C6pz         1C6py         1C6px         1C7pz         1C7py     
    3    1C7px         1C8pz         1C8py         1C8px         1C1d-2        1C1d-1        1C1d0         1C1d+1        1C1d+2        1C2d-2    
    4    1C2d-1        1C2d0         1C2d+1        1C2d+2        1C3d-2        1C3d-1        1C3d0         1C3d+1        1C3d+2        1C4d-2    
    5    1C4d-1        1C4d0         1C4d+1        1C4d+2        1C5d-2        1C5d-1        1C5d0         1C5d+1        1C5d+2        1C1f-3    
    6    1C1f-2        1C1f-1        1C1f0         1C1f+1        1C1f+2        1C1f+3        1C1g-4        1C1g-3        1C1g-2        1C1g-1    
    7    1C1g0         1C1g+1        1C1g+2        1C1g+3        1C1g+4        2O1s          2O2s          2O3s          2O4s          2O5s      
    8    2O6s          2O7s          2O8s          2O9s          2O10s         2O1pz         2O1py         2O1px         2O2pz         2O2py     
    9    2O2px         2O3pz         2O3py         2O3px         2O4pz         2O4py         2O4px         2O5pz         2O5py         2O5px     
   10    2O6pz         2O6py         2O6px         2O7pz         2O7py         2O7px         2O8pz         2O8py         2O8px         2O1d-2    
   11    2O1d-1        2O1d0         2O1d+1        2O1d+2        2O2d-2        2O2d-1        2O2d0         2O2d+1        2O2d+2        2O3d-2    
   12    2O3d-1        2O3d0         2O3d+1        2O3d+2        2O4d-2        2O4d-1        2O4d0         2O4d+1        2O4d+2        2O1f-3    
   13    2O1f-2        2O1f-1        2O1f0         2O1f+1        2O1f+2        2O1f+3        2O2f-3        2O2f-2        2O2f-1        2O2f0     
   14    2O2f+1        2O2f+2        2O2f+3        2O1g-4        2O1g-3        2O1g-2        2O1g-1        2O1g0         2O1g+1        2O1g+2    
   15    2O1g+3        2O1g+4        3Mg1s         3Mg2s         3Mg3s         3Mg4s         3Mg5s         3Mg6s         3Mg7s         3Mg8s     
   16    3Mg9s         3Mg10s        3Mg11s        3Mg12s        3Mg13s        3Mg1pz        3Mg1py        3Mg1px        3Mg2pz        3Mg2py    
   17    3Mg2px        3Mg3pz        3Mg3py        3Mg3px        3Mg4pz        3Mg4py        3Mg4px        3Mg5pz        3Mg5py        3Mg5px    
   18    3Mg6pz        3Mg6py        3Mg6px        3Mg7pz        3Mg7py        3Mg7px        3Mg8pz        3Mg8py        3Mg8px        3Mg9pz    
   19    3Mg9py        3Mg9px        3Mg1d-2       3Mg1d-1       3Mg1d0        3Mg1d+1       3Mg1d+2       3Mg2d-2       3Mg2d-1       3Mg2d0    
   20    3Mg2d+1       3Mg2d+2       3Mg3d-2       3Mg3d-1       3Mg3d0        3Mg3d+1       3Mg3d+2       3Mg4d-2       3Mg4d-1       3Mg4d0    
   21    3Mg4d+1       3Mg4d+2       3Mg5d-2       3Mg5d-1       3Mg5d0        3Mg5d+1       3Mg5d+2       3Mg6d-2       3Mg6d-1       3Mg6d0    
   22    3Mg6d+1       3Mg6d+2       3Mg7d-2       3Mg7d-1       3Mg7d0        3Mg7d+1       3Mg7d+2       3Mg1f-3       3Mg1f-2       3Mg1f-1   
   23    3Mg1f0        3Mg1f+1       3Mg1f+2       3Mg1f+3       3Mg2f-3       3Mg2f-2       3Mg2f-1       3Mg2f0        3Mg2f+1       3Mg2f+2   
   24    3Mg2f+3       3Mg3f-3       3Mg3f-2       3Mg3f-1       3Mg3f0        3Mg3f+1       3Mg3f+2       3Mg3f+3       3Mg4f-3       3Mg4f-2   
   25    3Mg4f-1       3Mg4f0        3Mg4f+1       3Mg4f+2       3Mg4f+3       3Mg1g-4       3Mg1g-3       3Mg1g-2       3Mg1g-1       3Mg1g0    
   26    3Mg1g+1       3Mg1g+2       3Mg1g+3       3Mg1g+4       4O1s          4O2s          4O3s          4O4s          4O5s          4O6s      
   27    4O7s          4O8s          4O9s          4O10s         4O1pz         4O1py         4O1px         4O2pz         4O2py         4O2px     
   28    4O3pz         4O3py         4O3px         4O4pz         4O4py         4O4px         4O5pz         4O5py         4O5px         4O6pz     
   29    4O6py         4O6px         4O7pz         4O7py         4O7px         4O8pz         4O8py         4O8px         4O1d-2        4O1d-1    
   30    4O1d0         4O1d+1        4O1d+2        4O2d-2        4O2d-1        4O2d0         4O2d+1        4O2d+2        4O3d-2        4O3d-1    
   31    4O3d0         4O3d+1        4O3d+2        4O4d-2        4O4d-1        4O4d0         4O4d+1        4O4d+2        4O1f-3        4O1f-2    
   32    4O1f-1        4O1f0         4O1f+1        4O1f+2        4O1f+3        4O2f-3        4O2f-2        4O2f-1        4O2f0         4O2f+1    
   33    4O2f+2        4O2f+3        4O1g-4        4O1g-3        4O1g-2        4O1g-1        4O1g0         4O1g+1        4O1g+2        4O1g+3    
   34    4O1g+4        5O1s          5O2s          5O3s          5O4s          5O5s          5O6s          5O7s          5O8s          5O9s      
   35    5O10s         5O1pz         5O1py         5O1px         5O2pz         5O2py         5O2px         5O3pz         5O3py         5O3px     
   36    5O4pz         5O4py         5O4px         5O5pz         5O5py         5O5px         5O6pz         5O6py         5O6px         5O7pz     
   37    5O7py         5O7px         5O8pz         5O8py         5O8px         5O1d-2        5O1d-1        5O1d0         5O1d+1        5O1d+2    
   38    5O2d-2        5O2d-1        5O2d0         5O2d+1        5O2d+2        5O3d-2        5O3d-1        5O3d0         5O3d+1        5O3d+2    
   39    5O4d-2        5O4d-1        5O4d0         5O4d+1        5O4d+2        5O1f-3        5O1f-2        5O1f-1        5O1f0         5O1f+1    
   40    5O1f+2        5O1f+3        5O2f-3        5O2f-2        5O2f-1        5O2f0         5O2f+1        5O2f+2        5O2f+3        5O1g-4    
   41    5O1g-3        5O1g-2        5O1g-1        5O1g0         5O1g+1        5O1g+2        5O1g+3        5O1g+4        6O1s          6O2s      
   42    6O3s          6O4s          6O5s          6O6s          6O7s          6O8s          6O9s          6O10s         6O1pz         6O1py     
   43    6O1px         6O2pz         6O2py         6O2px         6O3pz         6O3py         6O3px         6O4pz         6O4py         6O4px     
   44    6O5pz         6O5py         6O5px         6O6pz         6O6py         6O6px         6O7pz         6O7py         6O7px         6O8pz     
   45    6O8py         6O8px         6O1d-2        6O1d-1        6O1d0         6O1d+1        6O1d+2        6O2d-2        6O2d-1        6O2d0     
   46    6O2d+1        6O2d+2        6O3d-2        6O3d-1        6O3d0         6O3d+1        6O3d+2        6O4d-2        6O4d-1        6O4d0     
   47    6O4d+1        6O4d+2        6O1f-3        6O1f-2        6O1f-1        6O1f0         6O1f+1        6O1f+2        6O1f+3        6O2f-3    
   48    6O2f-2        6O2f-1        6O2f0         6O2f+1        6O2f+2        6O2f+3        6O1g-4        6O1g-3        6O1g-2        6O1g-1    
   49    6O1g0         6O1g+1        6O1g+2        6O1g+3        6O1g+4        7O1s          7O2s          7O3s          7O4s          7O5s      
   50    7O6s          7O7s          7O8s          7O9s          7O10s         7O1pz         7O1py         7O1px         7O2pz         7O2py     
   51    7O2px         7O3pz         7O3py         7O3px         7O4pz         7O4py         7O4px         7O5pz         7O5py         7O5px     
   52    7O6pz         7O6py         7O6px         7O7pz         7O7py         7O7px         7O8pz         7O8py         7O8px         7O1d-2    
   53    7O1d-1        7O1d0         7O1d+1        7O1d+2        7O2d-2        7O2d-1        7O2d0         7O2d+1        7O2d+2        7O3d-2    
   54    7O3d-1        7O3d0         7O3d+1        7O3d+2        7O4d-2        7O4d-1        7O4d0         7O4d+1        7O4d+2        7O1f-3    
   55    7O1f-2        7O1f-1        7O1f0         7O1f+1        7O1f+2        7O1f+3        7O2f-3        7O2f-2        7O2f-1        7O2f0     
   56    7O2f+1        7O2f+2        7O2f+3        7O1g-4        7O1g-3        7O1g-2        7O1g-1        7O1g0         7O1g+1        7O1g+2    
   57    7O1g+3        7O1g+4        8O1s          8O2s          8O3s          8O4s          8O5s          8O6s          8O7s          8O8s      
   58    8O9s          8O10s         8O1pz         8O1py         8O1px         8O2pz         8O2py         8O2px         8O3pz         8O3py     
   59    8O3px         8O4pz         8O4py         8O4px         8O5pz         8O5py         8O5px         8O6pz         8O6py         8O6px     
   60    8O7pz         8O7py         8O7px         8O8pz         8O8py         8O8px         8O1d-2        8O1d-1        8O1d0         8O1d+1    
   61    8O1d+2        8O2d-2        8O2d-1        8O2d0         8O2d+1        8O2d+2        8O3d-2        8O3d-1        8O3d0         8O3d+1    
   62    8O3d+2        8O4d-2        8O4d-1        8O4d0         8O4d+1        8O4d+2        8O1f-3        8O1f-2        8O1f-1        8O1f0     
   63    8O1f+1        8O1f+2        8O1f+3        8O2f-3        8O2f-2        8O2f-1        8O2f0         8O2f+1        8O2f+2        8O2f+3    
   64    8O1g-4        8O1g-3        8O1g-2        8O1g-1        8O1g0         8O1g+1        8O1g+2        8O1g+3        8O1g+4    
 
 Maximum number of basis functions per shell:   35
 Total number of basis functions:    649
 
 
 The AO basis set is larger than the fitting basis!
 
 Fitting basis set for the correlation calculation:
 
   1  C  aug-cc-pvqz-ri [ 9s 8p 7d 6f 4g 2h | 9s 8p 7d 6f 4g 2h ]
   2  O  aug-cc-pvqz-ri [ 9s 8p 7d 6f 4g 2h | 9s 8p 7d 6f 4g 2h ]
   3  Mg bse_cvqz_mp2fit [ 15s 13p 11d 9f 6g 3h | 15s 13p 11d 9f 6g 3h ]
   4  O  aug-cc-pvqz-ri [ 9s 8p 7d 6f 4g 2h | 9s 8p 7d 6f 4g 2h ]
   5  O  aug-cc-pvqz-ri [ 9s 8p 7d 6f 4g 2h | 9s 8p 7d 6f 4g 2h ]
   6  O  aug-cc-pvqz-ri [ 9s 8p 7d 6f 4g 2h | 9s 8p 7d 6f 4g 2h ]
   7  O  aug-cc-pvqz-ri [ 9s 8p 7d 6f 4g 2h | 9s 8p 7d 6f 4g 2h ]
   8  O  aug-cc-pvqz-ri [ 9s 8p 7d 6f 4g 2h | 9s 8p 7d 6f 4g 2h ]
 
 Basis functions:
            1             2             3             4             5             6             7             8             9            10
    0    1C1s          1C2s          1C3s          1C4s          1C5s          1C6s          1C7s          1C8s          1C9s          1C1pz     
    1    1C1py         1C1px         1C2pz         1C2py         1C2px         1C3pz         1C3py         1C3px         1C4pz         1C4py     
    2    1C4px         1C5pz         1C5py         1C5px         1C6pz         1C6py         1C6px         1C7pz         1C7py         1C7px     
    3    1C8pz         1C8py         1C8px         1C1d-2        1C1d-1        1C1d0         1C1d+1        1C1d+2        1C2d-2        1C2d-1    
    4    1C2d0         1C2d+1        1C2d+2        1C3d-2        1C3d-1        1C3d0         1C3d+1        1C3d+2        1C4d-2        1C4d-1    
    5    1C4d0         1C4d+1        1C4d+2        1C5d-2        1C5d-1        1C5d0         1C5d+1        1C5d+2        1C6d-2        1C6d-1    
    6    1C6d0         1C6d+1        1C6d+2        1C7d-2        1C7d-1        1C7d0         1C7d+1        1C7d+2        1C1f-3        1C1f-2    
    7    1C1f-1        1C1f0         1C1f+1        1C1f+2        1C1f+3        1C2f-3        1C2f-2        1C2f-1        1C2f0         1C2f+1    
    8    1C2f+2        1C2f+3        1C3f-3        1C3f-2        1C3f-1        1C3f0         1C3f+1        1C3f+2        1C3f+3        1C4f-3    
    9    1C4f-2        1C4f-1        1C4f0         1C4f+1        1C4f+2        1C4f+3        1C5f-3        1C5f-2        1C5f-1        1C5f0     
   10    1C5f+1        1C5f+2        1C5f+3        1C6f-3        1C6f-2        1C6f-1        1C6f0         1C6f+1        1C6f+2        1C6f+3    
   11    1C1g-4        1C1g-3        1C1g-2        1C1g-1        1C1g0         1C1g+1        1C1g+2        1C1g+3        1C1g+4        1C2g-4    
   12    1C2g-3        1C2g-2        1C2g-1        1C2g0         1C2g+1        1C2g+2        1C2g+3        1C2g+4        1C3g-4        1C3g-3    
   13    1C3g-2        1C3g-1        1C3g0         1C3g+1        1C3g+2        1C3g+3        1C3g+4        1C4g-4        1C4g-3        1C4g-2    
   14    1C4g-1        1C4g0         1C4g+1        1C4g+2        1C4g+3        1C4g+4        1C1h-5        1C1h-4        1C1h-3        1C1h-2    
   15    1C1h-1        1C1h0         1C1h+1        1C1h+2        1C1h+3        1C1h+4        1C1h+5        1C2h-5        1C2h-4        1C2h-3    
   16    1C2h-2        1C2h-1        1C2h0         1C2h+1        1C2h+2        1C2h+3        1C2h+4        1C2h+5        2O1s          2O2s      
   17    2O3s          2O4s          2O5s          2O6s          2O7s          2O8s          2O9s          2O1pz         2O1py         2O1px     
   18    2O2pz         2O2py         2O2px         2O3pz         2O3py         2O3px         2O4pz         2O4py         2O4px         2O5pz     
   19    2O5py         2O5px         2O6pz         2O6py         2O6px         2O7pz         2O7py         2O7px         2O8pz         2O8py     
   20    2O8px         2O1d-2        2O1d-1        2O1d0         2O1d+1        2O1d+2        2O2d-2        2O2d-1        2O2d0         2O2d+1    
   21    2O2d+2        2O3d-2        2O3d-1        2O3d0         2O3d+1        2O3d+2        2O4d-2        2O4d-1        2O4d0         2O4d+1    
   22    2O4d+2        2O5d-2        2O5d-1        2O5d0         2O5d+1        2O5d+2        2O6d-2        2O6d-1        2O6d0         2O6d+1    
   23    2O6d+2        2O7d-2        2O7d-1        2O7d0         2O7d+1        2O7d+2        2O1f-3        2O1f-2        2O1f-1        2O1f0     
   24    2O1f+1        2O1f+2        2O1f+3        2O2f-3        2O2f-2        2O2f-1        2O2f0         2O2f+1        2O2f+2        2O2f+3    
   25    2O3f-3        2O3f-2        2O3f-1        2O3f0         2O3f+1        2O3f+2        2O3f+3        2O4f-3        2O4f-2        2O4f-1    
   26    2O4f0         2O4f+1        2O4f+2        2O4f+3        2O5f-3        2O5f-2        2O5f-1        2O5f0         2O5f+1        2O5f+2    
   27    2O5f+3        2O6f-3        2O6f-2        2O6f-1        2O6f0         2O6f+1        2O6f+2        2O6f+3        2O1g-4        2O1g-3    
   28    2O1g-2        2O1g-1        2O1g0         2O1g+1        2O1g+2        2O1g+3        2O1g+4        2O2g-4        2O2g-3        2O2g-2    
   29    2O2g-1        2O2g0         2O2g+1        2O2g+2        2O2g+3        2O2g+4        2O3g-4        2O3g-3        2O3g-2        2O3g-1    
   30    2O3g0         2O3g+1        2O3g+2        2O3g+3        2O3g+4        2O4g-4        2O4g-3        2O4g-2        2O4g-1        2O4g0     
   31    2O4g+1        2O4g+2        2O4g+3        2O4g+4        2O1h-5        2O1h-4        2O1h-3        2O1h-2        2O1h-1        2O1h0     
   32    2O1h+1        2O1h+2        2O1h+3        2O1h+4        2O1h+5        2O2h-5        2O2h-4        2O2h-3        2O2h-2        2O2h-1    
   33    2O2h0         2O2h+1        2O2h+2        2O2h+3        2O2h+4        2O2h+5        3Mg1s         3Mg2s         3Mg3s         3Mg4s     
   34    3Mg5s         3Mg6s         3Mg7s         3Mg8s         3Mg9s         3Mg10s        3Mg11s        3Mg12s        3Mg13s        3Mg14s    
   35    3Mg15s        3Mg1pz        3Mg1py        3Mg1px        3Mg2pz        3Mg2py        3Mg2px        3Mg3pz        3Mg3py        3Mg3px    
   36    3Mg4pz        3Mg4py        3Mg4px        3Mg5pz        3Mg5py        3Mg5px        3Mg6pz        3Mg6py        3Mg6px        3Mg7pz    
   37    3Mg7py        3Mg7px        3Mg8pz        3Mg8py        3Mg8px        3Mg9pz        3Mg9py        3Mg9px        3Mg10pz       3Mg10py   
   38    3Mg10px       3Mg11pz       3Mg11py       3Mg11px       3Mg12pz       3Mg12py       3Mg12px       3Mg13pz       3Mg13py       3Mg13px   
   39    3Mg1d-2       3Mg1d-1       3Mg1d0        3Mg1d+1       3Mg1d+2       3Mg2d-2       3Mg2d-1       3Mg2d0        3Mg2d+1       3Mg2d+2   
   40    3Mg3d-2       3Mg3d-1       3Mg3d0        3Mg3d+1       3Mg3d+2       3Mg4d-2       3Mg4d-1       3Mg4d0        3Mg4d+1       3Mg4d+2   
   41    3Mg5d-2       3Mg5d-1       3Mg5d0        3Mg5d+1       3Mg5d+2       3Mg6d-2       3Mg6d-1       3Mg6d0        3Mg6d+1       3Mg6d+2   
   42    3Mg7d-2       3Mg7d-1       3Mg7d0        3Mg7d+1       3Mg7d+2       3Mg8d-2       3Mg8d-1       3Mg8d0        3Mg8d+1       3Mg8d+2   
   43    3Mg9d-2       3Mg9d-1       3Mg9d0        3Mg9d+1       3Mg9d+2       3Mg10d-2      3Mg10d-1      3Mg10d0       3Mg10d+1      3Mg10d+2  
   44    3Mg11d-2      3Mg11d-1      3Mg11d0       3Mg11d+1      3Mg11d+2      3Mg1f-3       3Mg1f-2       3Mg1f-1       3Mg1f0        3Mg1f+1   
   45    3Mg1f+2       3Mg1f+3       3Mg2f-3       3Mg2f-2       3Mg2f-1       3Mg2f0        3Mg2f+1       3Mg2f+2       3Mg2f+3       3Mg3f-3   
   46    3Mg3f-2       3Mg3f-1       3Mg3f0        3Mg3f+1       3Mg3f+2       3Mg3f+3       3Mg4f-3       3Mg4f-2       3Mg4f-1       3Mg4f0    
   47    3Mg4f+1       3Mg4f+2       3Mg4f+3       3Mg5f-3       3Mg5f-2       3Mg5f-1       3Mg5f0        3Mg5f+1       3Mg5f+2       3Mg5f+3   
   48    3Mg6f-3       3Mg6f-2       3Mg6f-1       3Mg6f0        3Mg6f+1       3Mg6f+2       3Mg6f+3       3Mg7f-3       3Mg7f-2       3Mg7f-1   
   49    3Mg7f0        3Mg7f+1       3Mg7f+2       3Mg7f+3       3Mg8f-3       3Mg8f-2       3Mg8f-1       3Mg8f0        3Mg8f+1       3Mg8f+2   
   50    3Mg8f+3       3Mg9f-3       3Mg9f-2       3Mg9f-1       3Mg9f0        3Mg9f+1       3Mg9f+2       3Mg9f+3       3Mg1g-4       3Mg1g-3   
   51    3Mg1g-2       3Mg1g-1       3Mg1g0        3Mg1g+1       3Mg1g+2       3Mg1g+3       3Mg1g+4       3Mg2g-4       3Mg2g-3       3Mg2g-2   
   52    3Mg2g-1       3Mg2g0        3Mg2g+1       3Mg2g+2       3Mg2g+3       3Mg2g+4       3Mg3g-4       3Mg3g-3       3Mg3g-2       3Mg3g-1   
   53    3Mg3g0        3Mg3g+1       3Mg3g+2       3Mg3g+3       3Mg3g+4       3Mg4g-4       3Mg4g-3       3Mg4g-2       3Mg4g-1       3Mg4g0    
   54    3Mg4g+1       3Mg4g+2       3Mg4g+3       3Mg4g+4       3Mg5g-4       3Mg5g-3       3Mg5g-2       3Mg5g-1       3Mg5g0        3Mg5g+1   
   55    3Mg5g+2       3Mg5g+3       3Mg5g+4       3Mg6g-4       3Mg6g-3       3Mg6g-2       3Mg6g-1       3Mg6g0        3Mg6g+1       3Mg6g+2   
   56    3Mg6g+3       3Mg6g+4       3Mg1h-5       3Mg1h-4       3Mg1h-3       3Mg1h-2       3Mg1h-1       3Mg1h0        3Mg1h+1       3Mg1h+2   
   57    3Mg1h+3       3Mg1h+4       3Mg1h+5       3Mg2h-5       3Mg2h-4       3Mg2h-3       3Mg2h-2       3Mg2h-1       3Mg2h0        3Mg2h+1   
   58    3Mg2h+2       3Mg2h+3       3Mg2h+4       3Mg2h+5       3Mg3h-5       3Mg3h-4       3Mg3h-3       3Mg3h-2       3Mg3h-1       3Mg3h0    
   59    3Mg3h+1       3Mg3h+2       3Mg3h+3       3Mg3h+4       3Mg3h+5       4O1s          4O2s          4O3s          4O4s          4O5s      
   60    4O6s          4O7s          4O8s          4O9s          4O1pz         4O1py         4O1px         4O2pz         4O2py         4O2px     
   61    4O3pz         4O3py         4O3px         4O4pz         4O4py         4O4px         4O5pz         4O5py         4O5px         4O6pz     
   62    4O6py         4O6px         4O7pz         4O7py         4O7px         4O8pz         4O8py         4O8px         4O1d-2        4O1d-1    
   63    4O1d0         4O1d+1        4O1d+2        4O2d-2        4O2d-1        4O2d0         4O2d+1        4O2d+2        4O3d-2        4O3d-1    
   64    4O3d0         4O3d+1        4O3d+2        4O4d-2        4O4d-1        4O4d0         4O4d+1        4O4d+2        4O5d-2        4O5d-1    
   65    4O5d0         4O5d+1        4O5d+2        4O6d-2        4O6d-1        4O6d0         4O6d+1        4O6d+2        4O7d-2        4O7d-1    
   66    4O7d0         4O7d+1        4O7d+2        4O1f-3        4O1f-2        4O1f-1        4O1f0         4O1f+1        4O1f+2        4O1f+3    
   67    4O2f-3        4O2f-2        4O2f-1        4O2f0         4O2f+1        4O2f+2        4O2f+3        4O3f-3        4O3f-2        4O3f-1    
   68    4O3f0         4O3f+1        4O3f+2        4O3f+3        4O4f-3        4O4f-2        4O4f-1        4O4f0         4O4f+1        4O4f+2    
   69    4O4f+3        4O5f-3        4O5f-2        4O5f-1        4O5f0         4O5f+1        4O5f+2        4O5f+3        4O6f-3        4O6f-2    
   70    4O6f-1        4O6f0         4O6f+1        4O6f+2        4O6f+3        4O1g-4        4O1g-3        4O1g-2        4O1g-1        4O1g0     
   71    4O1g+1        4O1g+2        4O1g+3        4O1g+4        4O2g-4        4O2g-3        4O2g-2        4O2g-1        4O2g0         4O2g+1    
   72    4O2g+2        4O2g+3        4O2g+4        4O3g-4        4O3g-3        4O3g-2        4O3g-1        4O3g0         4O3g+1        4O3g+2    
   73    4O3g+3        4O3g+4        4O4g-4        4O4g-3        4O4g-2        4O4g-1        4O4g0         4O4g+1        4O4g+2        4O4g+3    
   74    4O4g+4        4O1h-5        4O1h-4        4O1h-3        4O1h-2        4O1h-1        4O1h0         4O1h+1        4O1h+2        4O1h+3    
   75    4O1h+4        4O1h+5        4O2h-5        4O2h-4        4O2h-3        4O2h-2        4O2h-1        4O2h0         4O2h+1        4O2h+2    
   76    4O2h+3        4O2h+4        4O2h+5        5O1s          5O2s          5O3s          5O4s          5O5s          5O6s          5O7s      
   77    5O8s          5O9s          5O1pz         5O1py         5O1px         5O2pz         5O2py         5O2px         5O3pz         5O3py     
   78    5O3px         5O4pz         5O4py         5O4px         5O5pz         5O5py         5O5px         5O6pz         5O6py         5O6px     
   79    5O7pz         5O7py         5O7px         5O8pz         5O8py         5O8px         5O1d-2        5O1d-1        5O1d0         5O1d+1    
[...]
   52    3Mg2g-1       3Mg2g0        3Mg2g+1       3Mg2g+2       3Mg2g+3       3Mg2g+4       3Mg3g-4       3Mg3g-3       3Mg3g-2       3Mg3g-1   
   53    3Mg3g0        3Mg3g+1       3Mg3g+2       3Mg3g+3       3Mg3g+4       3Mg4g-4       3Mg4g-3       3Mg4g-2       3Mg4g-1       3Mg4g0    
   54    3Mg4g+1       3Mg4g+2       3Mg4g+3       3Mg4g+4       3Mg5g-4       3Mg5g-3       3Mg5g-2       3Mg5g-1       3Mg5g0        3Mg5g+1   
   55    3Mg5g+2       3Mg5g+3       3Mg5g+4       3Mg6g-4       3Mg6g-3       3Mg6g-2       3Mg6g-1       3Mg6g0        3Mg6g+1       3Mg6g+2   
   56    3Mg6g+3       3Mg6g+4       3Mg1h-5       3Mg1h-4       3Mg1h-3       3Mg1h-2       3Mg1h-1       3Mg1h0        3Mg1h+1       3Mg1h+2   
   57    3Mg1h+3       3Mg1h+4       3Mg1h+5       3Mg2h-5       3Mg2h-4       3Mg2h-3       3Mg2h-2       3Mg2h-1       3Mg2h0        3Mg2h+1   
   58    3Mg2h+2       3Mg2h+3       3Mg2h+4       3Mg2h+5       3Mg3h-5       3Mg3h-4       3Mg3h-3       3Mg3h-2       3Mg3h-1       3Mg3h0    
   59    3Mg3h+1       3Mg3h+2       3Mg3h+3       3Mg3h+4       3Mg3h+5       4O1s          4O2s          4O3s          4O4s          4O5s      
   60    4O6s          4O7s          4O8s          4O9s          4O1pz         4O1py         4O1px         4O2pz         4O2py         4O2px     
   61    4O3pz         4O3py         4O3px         4O4pz         4O4py         4O4px         4O5pz         4O5py         4O5px         4O6pz     
   62    4O6py         4O6px         4O7pz         4O7py         4O7px         4O8pz         4O8py         4O8px         4O1d-2        4O1d-1    
   63    4O1d0         4O1d+1        4O1d+2        4O2d-2        4O2d-1        4O2d0         4O2d+1        4O2d+2        4O3d-2        4O3d-1    
   64    4O3d0         4O3d+1        4O3d+2        4O4d-2        4O4d-1        4O4d0         4O4d+1        4O4d+2        4O5d-2        4O5d-1    
   65    4O5d0         4O5d+1        4O5d+2        4O6d-2        4O6d-1        4O6d0         4O6d+1        4O6d+2        4O7d-2        4O7d-1    
   66    4O7d0         4O7d+1        4O7d+2        4O1f-3        4O1f-2        4O1f-1        4O1f0         4O1f+1        4O1f+2        4O1f+3    
   67    4O2f-3        4O2f-2        4O2f-1        4O2f0         4O2f+1        4O2f+2        4O2f+3        4O3f-3        4O3f-2        4O3f-1    
   68    4O3f0         4O3f+1        4O3f+2        4O3f+3        4O4f-3        4O4f-2        4O4f-1        4O4f0         4O4f+1        4O4f+2    
   69    4O4f+3        4O5f-3        4O5f-2        4O5f-1        4O5f0         4O5f+1        4O5f+2        4O5f+3        4O6f-3        4O6f-2    
   70    4O6f-1        4O6f0         4O6f+1        4O6f+2        4O6f+3        4O1g-4        4O1g-3        4O1g-2        4O1g-1        4O1g0     
   71    4O1g+1        4O1g+2        4O1g+3        4O1g+4        4O2g-4        4O2g-3        4O2g-2        4O2g-1        4O2g0         4O2g+1    
   72    4O2g+2        4O2g+3        4O2g+4        4O3g-4        4O3g-3        4O3g-2        4O3g-1        4O3g0         4O3g+1        4O3g+2    
   73    4O3g+3        4O3g+4        4O4g-4        4O4g-3        4O4g-2        4O4g-1        4O4g0         4O4g+1        4O4g+2        4O4g+3    
   74    4O4g+4        4O1h-5        4O1h-4        4O1h-3        4O1h-2        4O1h-1        4O1h0         4O1h+1        4O1h+2        4O1h+3    
   75    4O1h+4        4O1h+5        4O2h-5        4O2h-4        4O2h-3        4O2h-2        4O2h-1        4O2h0         4O2h+1        4O2h+2    
   76    4O2h+3        4O2h+4        4O2h+5        5O1s          5O2s          5O3s          5O4s          5O5s          5O6s          5O7s      
   77    5O8s          5O9s          5O1pz         5O1py         5O1px         5O2pz         5O2py         5O2px         5O3pz         5O3py     
   78    5O3px         5O4pz         5O4py         5O4px         5O5pz         5O5py         5O5px         5O6pz         5O6py         5O6px     
   79    5O7pz         5O7py         5O7px         5O8pz         5O8py         5O8px         5O1d-2        5O1d-1        5O1d0         5O1d+1    
   80    5O1d+2        5O2d-2        5O2d-1        5O2d0         5O2d+1        5O2d+2        5O3d-2        5O3d-1        5O3d0         5O3d+1    
   81    5O3d+2        5O4d-2        5O4d-1        5O4d0         5O4d+1        5O4d+2        5O5d-2        5O5d-1        5O5d0         5O5d+1    
   82    5O5d+2        5O6d-2        5O6d-1        5O6d0         5O6d+1        5O6d+2        5O7d-2        5O7d-1        5O7d0         5O7d+1    
   83    5O7d+2        5O1f-3        5O1f-2        5O1f-1        5O1f0         5O1f+1        5O1f+2        5O1f+3        5O2f-3        5O2f-2    
   84    5O2f-1        5O2f0         5O2f+1        5O2f+2        5O2f+3        5O3f-3        5O3f-2        5O3f-1        5O3f0         5O3f+1    
   85    5O3f+2        5O3f+3        5O4f-3        5O4f-2        5O4f-1        5O4f0         5O4f+1        5O4f+2        5O4f+3        5O5f-3    
   86    5O5f-2        5O5f-1        5O5f0         5O5f+1        5O5f+2        5O5f+3        5O6f-3        5O6f-2        5O6f-1        5O6f0     
   87    5O6f+1        5O6f+2        5O6f+3        5O1g-4        5O1g-3        5O1g-2        5O1g-1        5O1g0         5O1g+1        5O1g+2    
   88    5O1g+3        5O1g+4        5O2g-4        5O2g-3        5O2g-2        5O2g-1        5O2g0         5O2g+1        5O2g+2        5O2g+3    
   89    5O2g+4        5O3g-4        5O3g-3        5O3g-2        5O3g-1        5O3g0         5O3g+1        5O3g+2        5O3g+3        5O3g+4    
   90    5O4g-4        5O4g-3        5O4g-2        5O4g-1        5O4g0         5O4g+1        5O4g+2        5O4g+3        5O4g+4        5O1h-5    
   91    5O1h-4        5O1h-3        5O1h-2        5O1h-1        5O1h0         5O1h+1        5O1h+2        5O1h+3        5O1h+4        5O1h+5    
   92    5O2h-5        5O2h-4        5O2h-3        5O2h-2        5O2h-1        5O2h0         5O2h+1        5O2h+2        5O2h+3        5O2h+4    
   93    5O2h+5        6O1s          6O2s          6O3s          6O4s          6O5s          6O6s          6O7s          6O8s          6O9s      
   94    6O1pz         6O1py         6O1px         6O2pz         6O2py         6O2px         6O3pz         6O3py         6O3px         6O4pz     
   95    6O4py         6O4px         6O5pz         6O5py         6O5px         6O6pz         6O6py         6O6px         6O7pz         6O7py     
   96    6O7px         6O8pz         6O8py         6O8px         6O1d-2        6O1d-1        6O1d0         6O1d+1        6O1d+2        6O2d-2    
   97    6O2d-1        6O2d0         6O2d+1        6O2d+2        6O3d-2        6O3d-1        6O3d0         6O3d+1        6O3d+2        6O4d-2    
   98    6O4d-1        6O4d0         6O4d+1        6O4d+2        6O5d-2        6O5d-1        6O5d0         6O5d+1        6O5d+2        6O6d-2    
   99    6O6d-1        6O6d0         6O6d+1        6O6d+2        6O7d-2        6O7d-1        6O7d0         6O7d+1        6O7d+2        6O1f-3    
  100    6O1f-2        6O1f-1        6O1f0         6O1f+1        6O1f+2        6O1f+3        6O2f-3        6O2f-2        6O2f-1        6O2f0     
  101    6O2f+1        6O2f+2        6O2f+3        6O3f-3        6O3f-2        6O3f-1        6O3f0         6O3f+1        6O3f+2        6O3f+3    
  102    6O4f-3        6O4f-2        6O4f-1        6O4f0         6O4f+1        6O4f+2        6O4f+3        6O5f-3        6O5f-2        6O5f-1    
  103    6O5f0         6O5f+1        6O5f+2        6O5f+3        6O6f-3        6O6f-2        6O6f-1        6O6f0         6O6f+1        6O6f+2    
  104    6O6f+3        6O1g-4        6O1g-3        6O1g-2        6O1g-1        6O1g0         6O1g+1        6O1g+2        6O1g+3        6O1g+4    
  105    6O2g-4        6O2g-3        6O2g-2        6O2g-1        6O2g0         6O2g+1        6O2g+2        6O2g+3        6O2g+4        6O3g-4    
  106    6O3g-3        6O3g-2        6O3g-1        6O3g0         6O3g+1        6O3g+2        6O3g+3        6O3g+4        6O4g-4        6O4g-3    
  107    6O4g-2        6O4g-1        6O4g0         6O4g+1        6O4g+2        6O4g+3        6O4g+4        6O1h-5        6O1h-4        6O1h-3    
  108    6O1h-2        6O1h-1        6O1h0         6O1h+1        6O1h+2        6O1h+3        6O1h+4        6O1h+5        6O2h-5        6O2h-4    
  109    6O2h-3        6O2h-2        6O2h-1        6O2h0         6O2h+1        6O2h+2        6O2h+3        6O2h+4        6O2h+5        7O1s      
  110    7O2s          7O3s          7O4s          7O5s          7O6s          7O7s          7O8s          7O9s          7O1pz         7O1py     
  111    7O1px         7O2pz         7O2py         7O2px         7O3pz         7O3py         7O3px         7O4pz         7O4py         7O4px     
  112    7O5pz         7O5py         7O5px         7O6pz         7O6py         7O6px         7O7pz         7O7py         7O7px         7O8pz     
  113    7O8py         7O8px         7O1d-2        7O1d-1        7O1d0         7O1d+1        7O1d+2        7O2d-2        7O2d-1        7O2d0     
  114    7O2d+1        7O2d+2        7O3d-2        7O3d-1        7O3d0         7O3d+1        7O3d+2        7O4d-2        7O4d-1        7O4d0     
  115    7O4d+1        7O4d+2        7O5d-2        7O5d-1        7O5d0         7O5d+1        7O5d+2        7O6d-2        7O6d-1        7O6d0     
  116    7O6d+1        7O6d+2        7O7d-2        7O7d-1        7O7d0         7O7d+1        7O7d+2        7O1f-3        7O1f-2        7O1f-1    
  117    7O1f0         7O1f+1        7O1f+2        7O1f+3        7O2f-3        7O2f-2        7O2f-1        7O2f0         7O2f+1        7O2f+2    
  118    7O2f+3        7O3f-3        7O3f-2        7O3f-1        7O3f0         7O3f+1        7O3f+2        7O3f+3        7O4f-3        7O4f-2    
  119    7O4f-1        7O4f0         7O4f+1        7O4f+2        7O4f+3        7O5f-3        7O5f-2        7O5f-1        7O5f0         7O5f+1    
  120    7O5f+2        7O5f+3        7O6f-3        7O6f-2        7O6f-1        7O6f0         7O6f+1        7O6f+2        7O6f+3        7O1g-4    
  121    7O1g-3        7O1g-2        7O1g-1        7O1g0         7O1g+1        7O1g+2        7O1g+3        7O1g+4        7O2g-4        7O2g-3    
  122    7O2g-2        7O2g-1        7O2g0         7O2g+1        7O2g+2        7O2g+3        7O2g+4        7O3g-4        7O3g-3        7O3g-2    
  123    7O3g-1        7O3g0         7O3g+1        7O3g+2        7O3g+3        7O3g+4        7O4g-4        7O4g-3        7O4g-2        7O4g-1    
  124    7O4g0         7O4g+1        7O4g+2        7O4g+3        7O4g+4        7O1h-5        7O1h-4        7O1h-3        7O1h-2        7O1h-1    
  125    7O1h0         7O1h+1        7O1h+2        7O1h+3        7O1h+4        7O1h+5        7O2h-5        7O2h-4        7O2h-3        7O2h-2    
  126    7O2h-1        7O2h0         7O2h+1        7O2h+2        7O2h+3        7O2h+4        7O2h+5        8O1s          8O2s          8O3s      
  127    8O4s          8O5s          8O6s          8O7s          8O8s          8O9s          8O1pz         8O1py         8O1px         8O2pz     
  128    8O2py         8O2px         8O3pz         8O3py         8O3px         8O4pz         8O4py         8O4px         8O5pz         8O5py     
  129    8O5px         8O6pz         8O6py         8O6px         8O7pz         8O7py         8O7px         8O8pz         8O8py         8O8px     
  130    8O1d-2        8O1d-1        8O1d0         8O1d+1        8O1d+2        8O2d-2        8O2d-1        8O2d0         8O2d+1        8O2d+2    
  131    8O3d-2        8O3d-1        8O3d0         8O3d+1        8O3d+2        8O4d-2        8O4d-1        8O4d0         8O4d+1        8O4d+2    
  132    8O5d-2        8O5d-1        8O5d0         8O5d+1        8O5d+2        8O6d-2        8O6d-1        8O6d0         8O6d+1        8O6d+2    
  133    8O7d-2        8O7d-1        8O7d0         8O7d+1        8O7d+2        8O1f-3        8O1f-2        8O1f-1        8O1f0         8O1f+1    
  134    8O1f+2        8O1f+3        8O2f-3        8O2f-2        8O2f-1        8O2f0         8O2f+1        8O2f+2        8O2f+3        8O3f-3    
  135    8O3f-2        8O3f-1        8O3f0         8O3f+1        8O3f+2        8O3f+3        8O4f-3        8O4f-2        8O4f-1        8O4f0     
  136    8O4f+1        8O4f+2        8O4f+3        8O5f-3        8O5f-2        8O5f-1        8O5f0         8O5f+1        8O5f+2        8O5f+3    
  137    8O6f-3        8O6f-2        8O6f-1        8O6f0         8O6f+1        8O6f+2        8O6f+3        8O1g-4        8O1g-3        8O1g-2    
  138    8O1g-1        8O1g0         8O1g+1        8O1g+2        8O1g+3        8O1g+4        8O2g-4        8O2g-3        8O2g-2        8O2g-1    
  139    8O2g0         8O2g+1        8O2g+2        8O2g+3        8O2g+4        8O3g-4        8O3g-3        8O3g-2        8O3g-1        8O3g0     
  140    8O3g+1        8O3g+2        8O3g+3        8O3g+4        8O4g-4        8O4g-3        8O4g-2        8O4g-1        8O4g0         8O4g+1    
  141    8O4g+2        8O4g+3        8O4g+4        8O1h-5        8O1h-4        8O1h-3        8O1h-2        8O1h-1        8O1h0         8O1h+1    
  142    8O1h+2        8O1h+3        8O1h+4        8O1h+5        8O2h-5        8O2h-4        8O2h-3        8O2h-2        8O2h-1        8O2h0     
  143    8O2h+1        8O2h+2        8O2h+3        8O2h+4        8O2h+5    
 
 Maximum number of basis functions per shell:   63
 Total number of basis functions:   1435
 
 
 Old basis set for SCF restart
 
   1  C  def2-svp [ 7s 4p 1d | 3s 2p 1d ]
   2  O  def2-svp [ 7s 4p 1d | 3s 2p 1d ]
   3  Mg def2-svp [ 10s 7p 1d | 4s 3p 1d ]
   4  O  def2-svp [ 7s 4p 1d | 3s 2p 1d ]
   5  O  def2-svp [ 7s 4p 1d | 3s 2p 1d ]
   6  O  def2-svp [ 7s 4p 1d | 3s 2p 1d ]
   7  O  def2-svp [ 7s 4p 1d | 3s 2p 1d ]
   8  O  def2-svp [ 7s 4p 1d | 3s 2p 1d ]
 
 Basis functions:
            1             2             3             4             5             6             7             8             9            10
    0    1C1s          1C2s          1C3s          1C1pz         1C1py         1C1px         1C2pz         1C2py         1C2px         1C1d-2    
    1    1C1d-1        1C1d0         1C1d+1        1C1d+2        2O1s          2O2s          2O3s          2O1pz         2O1py         2O1px     
    2    2O2pz         2O2py         2O2px         2O1d-2        2O1d-1        2O1d0         2O1d+1        2O1d+2        3Mg1s         3Mg2s     
    3    3Mg3s         3Mg4s         3Mg1pz        3Mg1py        3Mg1px        3Mg2pz        3Mg2py        3Mg2px        3Mg3pz        3Mg3py    
    4    3Mg3px        3Mg1d-2       3Mg1d-1       3Mg1d0        3Mg1d+1       3Mg1d+2       4O1s          4O2s          4O3s          4O1pz     
    5    4O1py         4O1px         4O2pz         4O2py         4O2px         4O1d-2        4O1d-1        4O1d0         4O1d+1        4O1d+2    
    6    5O1s          5O2s          5O3s          5O1pz         5O1py         5O1px         5O2pz         5O2py         5O2px         5O1d-2    
    7    5O1d-1        5O1d0         5O1d+1        5O1d+2        6O1s          6O2s          6O3s          6O1pz         6O1py         6O1px     
    8    6O2pz         6O2py         6O2px         6O1d-2        6O1d-1        6O1d0         6O1d+1        6O1d+2        7O1s          7O2s      
    9    7O3s          7O1pz         7O1py         7O1px         7O2pz         7O2py         7O2px         7O1d-2        7O1d-1        7O1d0     
   10    7O1d+1        7O1d+2        8O1s          8O2s          8O3s          8O1pz         8O1py         8O1px         8O2pz         8O2py     
   11    8O2px         8O1d-2        8O1d-1        8O1d0         8O1d+1        8O1d+2    
 
 Maximum number of basis functions per shell:   63
 Total number of basis functions:    116
 
 
 Calculation of prescreening integrals...
 CPU time [min]:     4.612                   Wall time [min]:     0.134
 
 Calculation of two-center Coulomb integrals...
   1% done.
  13% done.
  24% done.
  37% done.
  48% done.
  59% done.
  71% done.
  82% done.
  97% done.
 100% done.
 CPU time [min]:     4.893                   Wall time [min]:     0.147
 
 Calculation of inverse square root of the two-center integral matrix...
 CPU time [min]:     5.157                   Wall time [min]:     0.154
 
 Calculation of three-center Coulomb integrals...
   1% done.
  14% done.
  25% done.
  38% done.
  49% done.
  63% done.
  78% done.
  89% done.
 100% done.
 CPU time [min]:     9.841                   Wall time [min]:     0.286

 ************************ 2023-05-12 22:04:59 *************************
 Executing drpa...

 Three-index integral transformation
 
 Allocation of 160.0 Gbytes of memory...
 Minimal memory requirement for (ai|P) and (ij|P) integrals:       33.9 MB

 Calculating (ai|P) and (ij|P) integrals...
 Number of integral batches:    1
 Occupied indices per batch:    5
 
 Transforming integrals of batch 1...
 CPU time [min]:     3.257                   Wall time [min]:     0.097

 Calculating (ab|P) integrals...
 Minimal memory requirement for (ab|P) integrals:       26.5 MB
 Number of integral batches:    1
 Virtual indices per batch:   662

 Transforming integrals of batch 1...
 CPU time [min]:    28.756                   Wall time [min]:     1.407

 ************************ 2023-05-12 22:06:26 *************************
 Executing ccsd...

 Allocation of 160.0 Gbytes of memory...

 Direct DF-CCSD(T) calculation
 
 Convergence criterion:  1.0E-06
 
 Number of occupied/virtual/auxiliary orbitals:     5   662  1435
  24900.29 MB is the minimal memory requirement for (T)
   5172.13 MB is the minimal memory requirement for CCSD
 
 Reference energy [au]:            -112.785819379223
 T1 contribution [au]:                0.000000000000
 Same spin MP2 energy [au]:          -0.094958496228
 Opposite spin MP2 energy [au]:      -0.292076426484
 MP2 correlation energy [au]:        -0.387034922712
 Total MP2 energy [au]:            -113.172854301935
 
 
 CPU time [min]:     1.358                   Wall time [min]:     0.403
 
 Starting CCSD iterations...
 
                     Residual norm          Energy
 Iteration  1        0.233811021997     -113.154953041775
 Iteration  2        0.078304704169     -113.167764262431
 Iteration  3        0.025841853503     -113.171425888464
 Iteration  4        0.008876726531     -113.170808746576
 Iteration  5        0.002455797991     -113.170873142773
 Iteration  6        0.000495932156     -113.170890216800
 Iteration  7        0.000143793291     -113.170887399181
 Iteration  8        0.000039579078     -113.170887620831
 Iteration  9        0.000013370410     -113.170887600310
 Iteration 10        0.000003825414     -113.170887423893
 
 CCSD iteration has converged in 10 steps.
   163837.60 MB memory was utilized by CCSD
 
 T1 diagnostic:      1.888E-02            D1 diagnostic:      3.947E-02
 
 T1 contribution [au]:                                  0.000000000000
 Opposite spin CCSD energy [au]:                       -0.304016836252
 Same spin CCSD energy [au]:                           -0.081051208418
 CCSD correlation energy [au]:                         -0.385068044670
 Total CCSD energy [au]:                             -113.170887423893
 
 CPU time [min]:  2037.611                   Wall time [min]:    59.401
 
 Calculation of (T) correction...
 
 
    25010.66 MB memory is utilized for (T)

 0%       25%       50%       75%       100%
 |---------|---------|---------|---------| 
 
 (T) correction [au]:                                    -0.019352518219
 CCSD(T) correlation energy [au]:                        -0.404420562890
 Total CCSD(T) energy [au]:                            -113.190239942113
 
 CPU time [min]:  2098.038                   Wall time [min]:    62.351
 
 ************************ 2023-05-12 23:08:48 *************************
                      Normal termination of mrcc.
 **********************************************************************
