 vasp.6.3.0 20Jan22 (build Apr  1 2022 16:44:48) complex                         
 executed on        HPECrayEX_GCC date 2023.05.17  21:53:54
 running  512 mpi-ranks, with    1 threads/rank
 distrk:  each k-point on  512 cores,    1 groups
 distr:  one band on NCORE=   8 cores,   64 groups


--------------------------------------------------------------------------------------------------------


 INCAR:
   SYSTEM = MgO-rocksalt
   ISMEAR = 0
   SIGMA = 0.05
   EDIFF = 1E-6
   ALGO = ALL
   ISTART = 0
   IBRION = -1
   NSW = 0
   ISYM = 2
   ISIF = 2
   EDIFFG = -0.01
   DIPOL = 0.5 0.5 0.5
   IDIPOL = 3
   LDIPOL = .TRUE.
   LHFCALC = .TRUE.
   GGA = B5
   AEXX = 0.2
   AGGAX = 0.72
   AGGAC = 0.81
   ALDAC = 0.19
   IVDW = 1
   VDW_S6 = 1.05
   VDW_C6 = 1.75 0.70 0.63 0.70
   VDW_R0 = 1.452 1.342 1.243 1.342
   ENCUT = 600
   PREC = Normal
   LASPH = .TRUE.
   LREAL = .FALSE.
   ISPIN = 1
   NELM = 200
   NELMIN = 8
   NCORE = 8
   KPAR = 1
   LWAVE = .FALSE.
   LCHARG = .FALSE.

 POTCAR:    PAW_PBE C 08Apr2002                   
 POTCAR:    PAW_PBE O 08Apr2002                   
 POTCAR:    PAW_PBE Mg_pv 13Apr2007               
 POTCAR:    PAW_PBE O 08Apr2002                   
 -----------------------------------------------------------------------------
|                                                                             |
|           W    W    AA    RRRRR   N    N  II  N    N   GGGG   !!!           |
|           W    W   A  A   R    R  NN   N  II  NN   N  G    G  !!!           |
|           W    W  A    A  R    R  N N  N  II  N N  N  G       !!!           |
|           W WW W  AAAAAA  RRRRR   N  N N  II  N  N N  G  GGG   !            |
|           WW  WW  A    A  R   R   N   NN  II  N   NN  G    G                |
|           W    W  A    A  R    R  N    N  II  N    N   GGGG   !!!           |
|                                                                             |
|     You have selected ISYM=2 for a HF type calculation. This will           |
|     symmetrize the charge density but not the exchange potential. I         |
|     suggest to use ISYM=3 instead. This uses symmetry to obtain the         |
|     orbitals at all k-points in the Brillouin zone, but does not apply      |
|     symmetry to the Hartree potential directly. The resultant charge        |
|     might have lower symmetry than the crystal but, at least, Hartree       |
|     and exchange are fully compatible.                                      |
|                                                                             |
 -----------------------------------------------------------------------------

 POTCAR:    PAW_PBE C 08Apr2002                   
   SHA256 =  253f7b50bb8d59471dbedb8285d89021f4a42ed1a2c5d38a03a736e69125dd95 C/POTCAR              
   COPYR  = (c) Copyright 08Apr2002 Georg Kresse                                                    
   COPYR  = This file is part of the software VASP. Any use, copying, and all other rights are regul
   COPYR  = If you do not have a valid VASP license, you may not use, copy or distribute this file. 
   VRHFIN =C: s2p2                                                                                  
   LEXCH  = PE                                                                                      
   EATOM  =   147.1560 eV,   10.8157 Ry                                                             
                                                                                                    
   TITEL  = PAW_PBE C 08Apr2002                                                                     
   LULTRA =        F    use ultrasoft PP ?                                                          
   IUNSCR =        1    unscreen: 0-lin 1-nonlin 2-no                                               
   RPACOR =    1.200    partial core radius                                                         
   POMASS =   12.011; ZVAL   =    4.000    mass and valenz                                          
   RCORE  =    1.500    outmost cutoff radius                                                       
   RWIGS  =    1.630; RWIGS  =    0.863    wigner-seitz radius (au A)                               
   ENMAX  =  400.000; ENMIN  =  300.000 eV                                                          
   ICORE  =        2    local potential                                                             
   LCOR   =        T    correct aug charges                                                         
   LPAW   =        T    paw PP                                                                      
   EAUG   =  644.873                                                                                
   DEXC   =    0.000                                                                                
   RMAX   =    1.529    core radius for proj-oper                                                   
   RAUG   =    1.300    factor for augmentation sphere                                              
   RDEP   =    1.501    radius for radial grids                                                     
   RDEPT  =    1.300    core radius for aug-charge                                                  
                                                                                                    
   Atomic configuration                                                                             
    4 entries                                                                                       
     n  l   j            E        occ.                                                              
     1  0  0.50      -273.3789   2.0000                                                             
     2  0  0.50       -13.7508   2.0000                                                             
     2  1  0.50        -5.2854   2.0000                                                             
     3  2  1.50        -5.4423   0.0000                                                             
   Description                                                                                      
     l       E           TYP  RCUT    TYP  RCUT                                                     
     0    -13.7508458     23  1.200                                                                 
     0     -8.2022199     23  1.200                                                                 
     1     -5.2854383     23  1.500                                                                 
     1     34.0145650     23  1.500                                                                 
     2     -5.4423304      7  1.500                                                                 
  local pseudopotential read in
  partial core-charges read in
  partial kinetic energy density read in
  atomic valenz-charges read in
  non local Contribution for L=           0  read in
    real space projection operators read in
  non local Contribution for L=           0  read in
    real space projection operators read in
  non local Contribution for L=           1  read in
    real space projection operators read in
  non local Contribution for L=           1  read in
    real space projection operators read in
    PAW grid and wavefunctions read in

   number of l-projection  operators is LMAX  =           4
   number of lm-projection operators is LMMAX =           8

 POTCAR:    PAW_PBE O 08Apr2002                   
   SHA256 =  818f92134a0a090dccd8ba1447fa70422a3b330e708bb4f08108d8ae51209ddf O/POTCAR              
   COPYR  = (c) Copyright 08Apr2002 Georg Kresse                                                    
   COPYR  = This file is part of the software VASP. Any use, copying, and all other rights are regul
   COPYR  = If you do not have a valid VASP license, you may not use, copy or distribute this file. 
   VRHFIN =O: s2p4                                                                                  
   LEXCH  = PE                                                                                      
   EATOM  =   432.3788 eV,   31.7789 Ry                                                             
                                                                                                    
   TITEL  = PAW_PBE O 08Apr2002                                                                     
   LULTRA =        F    use ultrasoft PP ?                                                          
   IUNSCR =        1    unscreen: 0-lin 1-nonlin 2-no                                               
   RPACOR =    1.200    partial core radius                                                         
   POMASS =   16.000; ZVAL   =    6.000    mass and valenz                                          
   RCORE  =    1.520    outmost cutoff radius                                                       
   RWIGS  =    1.550; RWIGS  =    0.820    wigner-seitz radius (au A)                               
   ENMAX  =  400.000; ENMIN  =  300.000 eV                                                          
   ICORE  =        2    local potential                                                             
   LCOR   =        T    correct aug charges                                                         
   LPAW   =        T    paw PP                                                                      
   EAUG   =  605.392                                                                                
   DEXC   =    0.000                                                                                
   RMAX   =    1.553    core radius for proj-oper                                                   
   RAUG   =    1.300    factor for augmentation sphere                                              
   RDEP   =    1.550    radius for radial grids                                                     
   RDEPT  =    1.329    core radius for aug-charge                                                  
                                                                                                    
   Atomic configuration                                                                             
    4 entries                                                                                       
     n  l   j            E        occ.                                                              
     1  0  0.50      -514.6923   2.0000                                                             
     2  0  0.50       -23.9615   2.0000                                                             
     2  1  0.50        -9.0305   4.0000                                                             
     3  2  1.50        -9.5241   0.0000                                                             
   Description                                                                                      
     l       E           TYP  RCUT    TYP  RCUT                                                     
     0    -23.9615318     23  1.200                                                                 
     0     -9.5240782     23  1.200                                                                 
     1     -9.0304911     23  1.520                                                                 
     1      8.1634956     23  1.520                                                                 
     2     -9.5240782      7  1.500                                                                 
  local pseudopotential read in
  partial core-charges read in
  partial kinetic energy density read in
  kinetic energy density of atom read in
  atomic valenz-charges read in
  non local Contribution for L=           0  read in
    real space projection operators read in
  non local Contribution for L=           0  read in
    real space projection operators read in
  non local Contribution for L=           1  read in
    real space projection operators read in
  non local Contribution for L=           1  read in
    real space projection operators read in
    PAW grid and wavefunctions read in

   number of l-projection  operators is LMAX  =           4
   number of lm-projection operators is LMMAX =           8

 POTCAR:    PAW_PBE Mg_pv 13Apr2007               
   SHA256 =  f474ac0dd33840b9ae76c01d57fea79fdf77cdfbb07d5ade72c65f83c709b62b Mg_pv/POTCAR          
   COPYR  = (c) Copyright 13Apr2007 Georg Kresse                                                    
   COPYR  = This file is part of the software VASP. Any use, copying, and all other rights are regul
   COPYR  = If you do not have a valid VASP license, you may not use, copy or distribute this file. 
   VRHFIN =Mg: p6s2                                                                                 
   LEXCH  = PE                                                                                      
   EATOM  =  1056.7344 eV,   77.6678 Ry                                                             
                                                                                                    
   TITEL  = PAW_PBE Mg_pv 13Apr2007                                                                 
   LULTRA =        F    use ultrasoft PP ?                                                          
   IUNSCR =        1    unscreen: 0-lin 1-nonlin 2-no                                               
   RPACOR =    1.500    partial core radius                                                         
   POMASS =   24.305; ZVAL   =    8.000    mass and valenz                                          
   RCORE  =    2.000    outmost cutoff radius                                                       
   RWIGS  =    2.000; RWIGS  =    1.058    wigner-seitz radius (au A)                               
   ENMAX  =  403.929; ENMIN  =  302.947 eV                                                          
   RCLOC  =    1.506    cutoff for local pot                                                        
   LCOR   =        T    correct aug charges                                                         
   LPAW   =        T    paw PP                                                                      
   EAUG   =  758.780                                                                                
   DEXC   =    0.000                                                                                
   RMAX   =    2.045    core radius for proj-oper                                                   
   RAUG   =    1.300    factor for augmentation sphere                                              
   RDEP   =    2.025    radius for radial grids                                                     
   RDEPT  =    1.557    core radius for aug-charge                                                  
                                                                                                    
   Atomic configuration                                                                             
    5 entries                                                                                       
     n  l   j            E        occ.                                                              
     1  0  0.50     -1259.6230   2.0000                                                             
     2  0  0.50       -79.8442   2.0000                                                             
     2  1  1.50       -46.6121   6.0000                                                             
     3  0  0.50        -4.7055   2.0000                                                             
     3  2  1.50        -1.3606   0.0000                                                             
   Description                                                                                      
     l       E           TYP  RCUT    TYP  RCUT                                                     
     1    -46.6121073     23  1.600                                                                 
     1      2.7211652     23  1.600                                                                 
     0     -4.7054661     23  2.000                                                                 
     0     61.2262170     23  2.000                                                                 
     2     -1.3605826     23  2.000                                                                 
  local pseudopotential read in
  partial core-charges read in
  partial kinetic energy density read in
  atomic valenz-charges read in
  non local Contribution for L=           1  read in
    real space projection operators read in
  non local Contribution for L=           1  read in
    real space projection operators read in
  non local Contribution for L=           0  read in
    real space projection operators read in
  non local Contribution for L=           0  read in
    real space projection operators read in
  non local Contribution for L=           2  read in
    real space projection operators read in
    PAW grid and wavefunctions read in

   number of l-projection  operators is LMAX  =           5
   number of lm-projection operators is LMMAX =          13

 POTCAR:    PAW_PBE O 08Apr2002                   
   SHA256 =  818f92134a0a090dccd8ba1447fa70422a3b330e708bb4f08108d8ae51209ddf O/POTCAR              
   COPYR  = (c) Copyright 08Apr2002 Georg Kresse                                                    
   COPYR  = This file is part of the software VASP. Any use, copying, and all other rights are regul
   COPYR  = If you do not have a valid VASP license, you may not use, copy or distribute this file. 
   VRHFIN =O: s2p4                                                                                  
   LEXCH  = PE                                                                                      
   EATOM  =   432.3788 eV,   31.7789 Ry                                                             
                                                                                                    
   TITEL  = PAW_PBE O 08Apr2002                                                                     
   LULTRA =        F    use ultrasoft PP ?                                                          
   IUNSCR =        1    unscreen: 0-lin 1-nonlin 2-no                                               
   RPACOR =    1.200    partial core radius                                                         
   POMASS =   16.000; ZVAL   =    6.000    mass and valenz                                          
   RCORE  =    1.520    outmost cutoff radius                                                       
   RWIGS  =    1.550; RWIGS  =    0.820    wigner-seitz radius (au A)                               
   ENMAX  =  400.000; ENMIN  =  300.000 eV                                                          
   ICORE  =        2    local potential                                                             
   LCOR   =        T    correct aug charges                                                         
   LPAW   =        T    paw PP                                                                      
   EAUG   =  605.392                                                                                
   DEXC   =    0.000                                                                                
   RMAX   =    1.553    core radius for proj-oper                                                   
   RAUG   =    1.300    factor for augmentation sphere                                              
   RDEP   =    1.550    radius for radial grids                                                     
   RDEPT  =    1.329    core radius for aug-charge                                                  
                                                                                                    
   Atomic configuration                                                                             
    4 entries                                                                                       
     n  l   j            E        occ.                                                              
     1  0  0.50      -514.6923   2.0000                                                             
     2  0  0.50       -23.9615   2.0000                                                             
     2  1  0.50        -9.0305   4.0000                                                             
     3  2  1.50        -9.5241   0.0000                                                             
   Description                                                                                      
     l       E           TYP  RCUT    TYP  RCUT                                                     
     0    -23.9615318     23  1.200                                                                 
     0     -9.5240782     23  1.200                                                                 
     1     -9.0304911     23  1.520                                                                 
     1      8.1634956     23  1.520                                                                 
     2     -9.5240782      7  1.500                                                                 
  local pseudopotential read in
  partial core-charges read in
  partial kinetic energy density read in
  kinetic energy density of atom read in
  atomic valenz-charges read in
  non local Contribution for L=           0  read in
    real space projection operators read in
  non local Contribution for L=           0  read in
    real space projection operators read in
  non local Contribution for L=           1  read in
    real space projection operators read in
  non local Contribution for L=           1  read in
    real space projection operators read in
    PAW grid and wavefunctions read in

   number of l-projection  operators is LMAX  =           4
   number of lm-projection operators is LMMAX =           8

 -----------------------------------------------------------------------------
|                                                                             |
|               ----> ADVICE to this user running VASP <----                  |
|                                                                             |
|     You have a (more or less) 'large supercell' and for larger cells it     |
|     might be more efficient to use real-space projection operators.         |
|     Therefore, try LREAL= Auto in the INCAR file.                           |
|     Mind: For very accurate calculation, you might also keep the            |
|     reciprocal projection scheme (i.e. LREAL=.FALSE.).                      |
|                                                                             |
 -----------------------------------------------------------------------------

 -----------------------------------------------------------------------------
|                                                                             |
|               ----> ADVICE to this user running VASP <----                  |
|                                                                             |
|     You enforced a specific xc type in the INCAR file but a different       |
|     type was found in the POTCAR file.                                      |
|     I HOPE YOU KNOW WHAT YOU ARE DOING!                                     |
|                                                                             |
 -----------------------------------------------------------------------------

  PAW_PBE C 08Apr2002                   :
 energy of atom  1       EATOM= -147.1560
 kinetic energy error for atom=    0.0057 (will be added to EATOM!!)
  PAW_PBE O 08Apr2002                   :
 energy of atom  2       EATOM= -432.3788
 kinetic energy error for atom=    0.0168 (will be added to EATOM!!)
  PAW_PBE Mg_pv 13Apr2007               :
 energy of atom  3       EATOM=-1056.7344
 kinetic energy error for atom=    0.0221 (will be added to EATOM!!)
  PAW_PBE O 08Apr2002                   :
 energy of atom  4       EATOM= -432.3788
 kinetic energy error for atom=    0.0168 (will be added to EATOM!!)


 POSCAR:  C  O Mg  O
  positions in direct lattice
  No initial velocities read in
 exchange correlation table for  LEXCH =       12
   RHO(1)=    0.500       N(1)  =     2000
   RHO(2)=  100.500       N(2)  =     4000



--------------------------------------------------------------------------------------------------------


 ion  position               nearest neighbor table
   1  0.500  0.500  0.773-   2 1.15
   2  0.500  0.500  0.827-   1 1.15
   3  0.000  0.750  0.352-  35 2.11  37 2.11  38 2.11  45 2.11  54 2.11
   4  0.250  0.000  0.352-  36 2.11  37 2.11  38 2.11  46 2.11  53 2.11
   5  0.000  0.000  0.451-  37 2.11  36 2.11  35 2.11  43 2.11  52 2.11  41 2.12
   6  0.250  0.750  0.451-  38 2.11  36 2.11  35 2.11  44 2.11  51 2.11  42 2.12
   7  0.000  0.750  0.550-  49 2.11  42 2.11  58 2.11  41 2.11  35 2.12  39 2.15
   8  0.250  0.000  0.550-  57 2.11  50 2.11  42 2.11  41 2.11  36 2.12  40 2.15
   9  0.000  0.000  0.649-  39 2.11  40 2.11  47 2.11  56 2.11  41 2.11
  10  0.250  0.750  0.649-  42 2.11  40 2.11  39 2.11  48 2.11  55 2.11
  11  0.000  0.250  0.352-  43 2.11  37 2.11  45 2.11  46 2.11  62 2.11
  12  0.250  0.500  0.352-  44 2.11  38 2.11  45 2.11  46 2.11  61 2.11
  13  0.000  0.500  0.451-  45 2.11  43 2.11  44 2.11  35 2.11  60 2.11  49 2.12
  14  0.250  0.250  0.451-  46 2.11  43 2.11  44 2.11  36 2.11  59 2.11  50 2.12
  15  0.000  0.250  0.550-  49 2.11  50 2.11  66 2.11  41 2.11  43 2.12  47 2.15
  16  0.250  0.500  0.550-  65 2.11  50 2.11  42 2.11  49 2.11  44 2.13  48 2.15
  17  0.000  0.500  0.649-  48 2.10  64 2.10  49 2.11  47 2.11  39 2.11
  18  0.250  0.250  0.649-  50 2.11  47 2.11  40 2.11  48 2.11  63 2.11
  19  0.500  0.750  0.352-  51 2.11  38 2.11  53 2.11  54 2.11  61 2.11
  20  0.750  0.000  0.352-  52 2.11  37 2.11  53 2.11  54 2.11  62 2.11
  21  0.500  0.000  0.451-  53 2.11  51 2.11  52 2.11  36 2.11  59 2.11  57 2.12
  22  0.750  0.750  0.451-  54 2.11  51 2.11  52 2.11  35 2.11  60 2.11  58 2.12
  23  0.500  0.750  0.550-  65 2.11  58 2.11  42 2.11  57 2.11  51 2.13  55 2.15
  24  0.750  0.000  0.550-  57 2.11  58 2.11  66 2.11  41 2.11  52 2.12  56 2.15
  25  0.500  0.000  0.649-  55 2.10  63 2.10  57 2.11  40 2.11  56 2.11
  26  0.750  0.750  0.649-  58 2.11  56 2.11  39 2.11  55 2.11  64 2.11
  27  0.500  0.250  0.352-  59 2.11  53 2.11  46 2.11  61 2.11  62 2.11
  28  0.750  0.500  0.352-  60 2.11  54 2.11  45 2.11  61 2.11  62 2.11
  29  0.500  0.500  0.451-  61 2.11  51 2.11  59 2.11  60 2.11  44 2.11  65 2.13
  30  0.750  0.250  0.451-  62 2.11  52 2.11  59 2.11  60 2.11  43 2.11  66 2.12
  31  0.500  0.250  0.550-  65 2.11  50 2.11  66 2.11  57 2.11  59 2.13  63 2.15
  32  0.750  0.500  0.550-  65 2.11  58 2.11  66 2.11  49 2.11  60 2.13  64 2.15
  33  0.500  0.500  0.651-  48 2.12  55 2.12  63 2.12  64 2.12  65 2.14
  34  0.750  0.250  0.649-  66 2.11  56 2.11  47 2.11  64 2.11  63 2.11
  35  0.000  0.750  0.451-   3 2.11   5 2.11   6 2.11  13 2.11  22 2.11   7 2.12
  36  0.250  0.000  0.451-   4 2.11   5 2.11   6 2.11  14 2.11  21 2.11   8 2.12
  37  0.000  0.000  0.352-   5 2.11   4 2.11   3 2.11  11 2.11  20 2.11
  38  0.250  0.750  0.352-   6 2.11   4 2.11   3 2.11  12 2.11  19 2.11
  39  0.000  0.750  0.651-   9 2.11  10 2.11  26 2.11  17 2.11   7 2.15
  40  0.250  0.000  0.651-   9 2.11  10 2.11  18 2.11  25 2.11   8 2.15
  41  0.000  0.000  0.550-   9 2.11   8 2.11   7 2.11  15 2.11  24 2.11   5 2.12
  42  0.250  0.750  0.550-  10 2.11   8 2.11   7 2.11  16 2.11  23 2.11   6 2.12
  43  0.000  0.250  0.451-  11 2.11   5 2.11  13 2.11  14 2.11  30 2.11  15 2.12
  44  0.250  0.500  0.451-  12 2.11   6 2.11  13 2.11  14 2.11  29 2.11  16 2.13
  45  0.000  0.500  0.352-  13 2.11  11 2.11  12 2.11   3 2.11  28 2.11
  46  0.250  0.250  0.352-  14 2.11  11 2.11  12 2.11   4 2.11  27 2.11
  47  0.000  0.250  0.651-   9 2.11  18 2.11  34 2.11  17 2.11  15 2.15
  48  0.249  0.500  0.651-  17 2.10  10 2.11  18 2.11  33 2.12  16 2.15
  49  0.000  0.500  0.550-  17 2.11  15 2.11   7 2.11  16 2.11  32 2.11  13 2.12
  50  0.250  0.250  0.550-  18 2.11  15 2.11   8 2.11  16 2.11  31 2.11  14 2.12
  51  0.500  0.750  0.451-  19 2.11   6 2.11  21 2.11  22 2.11  29 2.11  23 2.13
  52  0.750  0.000  0.451-  20 2.11   5 2.11  21 2.11  22 2.11  30 2.11  24 2.12
  53  0.500  0.000  0.352-  21 2.11  19 2.11  20 2.11   4 2.11  27 2.11
  54  0.750  0.750  0.352-  22 2.11  19 2.11  20 2.11   3 2.11  28 2.11
  55  0.500  0.751  0.651-  25 2.10  10 2.11  26 2.11  33 2.12  23 2.15
  56  0.750  0.000  0.651-   9 2.11  26 2.11  34 2.11  25 2.11  24 2.15
  57  0.500  0.000  0.550-  25 2.11  24 2.11   8 2.11  23 2.11  31 2.11  21 2.12
  58  0.750  0.750  0.550-  26 2.11  24 2.11   7 2.11  32 2.11  23 2.11  22 2.12
  59  0.500  0.250  0.451-  27 2.11  21 2.11  14 2.11  29 2.11  30 2.11  31 2.13
  60  0.750  0.500  0.451-  28 2.11  22 2.11  13 2.11  29 2.11  30 2.11  32 2.13
  61  0.500  0.500  0.352-  29 2.11  19 2.11  27 2.11  28 2.11  12 2.11
  62  0.750  0.250  0.352-  30 2.11  20 2.11  27 2.11  28 2.11  11 2.11
  63  0.500  0.249  0.651-  25 2.10  18 2.11  34 2.11  33 2.12  31 2.15
  64  0.751  0.500  0.651-  17 2.10  26 2.11  34 2.11  33 2.12  32 2.15
  65  0.500  0.500  0.550-  16 2.11  23 2.11  31 2.11  32 2.11  29 2.13  33 2.14
  66  0.750  0.250  0.550-  34 2.11  24 2.11  15 2.11  32 2.11  31 2.11  30 2.12

  LATTYP: Found a simple tetragonal cell.
 ALAT       =     8.4409846542
 C/A-ratio  =     2.5270438657
  
  Lattice vectors:
  
 A1 = (   8.4409846542,   0.0000000000,   0.0000000000)
 A2 = (   0.0000000000,   8.4409846542,   0.0000000000)
 A3 = (   0.0000000000,   0.0000000000,  21.3307384906)


Analysis of symmetry for initial positions (statically):
=====================================================================
 Subroutine PRICEL returns:
 Original cell was already a primitive cell.
 

 Routine SETGRP: Setting up the symmetry group for a 
 simple tetragonal supercell.


 Subroutine GETGRP returns: Found  8 space group operations
 (whereof  8 operations were pure point group operations)
 out of a pool of 16 trial point group operations.


The static configuration has the point symmetry C_4v.


Analysis of symmetry for dynamics (positions and initial velocities):
=====================================================================
 Subroutine PRICEL returns:
 Original cell was already a primitive cell.
 

 Routine SETGRP: Setting up the symmetry group for a 
 simple tetragonal supercell.


 Subroutine GETGRP returns: Found  8 space group operations
 (whereof  8 operations were pure point group operations)
 out of a pool of 16 trial point group operations.


The dynamic configuration has the point symmetry C_4v.


 Subroutine INISYM returns: Found  8 space group operations
 (whereof  8 operations are pure point group operations),
 and found     1 'primitive' translations


----------------------------------------------------------------------------------------

                                     Primitive cell                                     

  volume of cell :    1519.8199

  direct lattice vectors                    reciprocal lattice vectors
     8.440984654  0.000000000  0.000000000     0.118469591  0.000000000  0.000000000
     0.000000000  8.440984654  0.000000000     0.000000000  0.118469591  0.000000000
     0.000000000  0.000000000 21.330738491     0.000000000  0.000000000  0.046880702

  length of vectors
     8.440984654  8.440984654 21.330738491     0.118469591  0.118469591  0.046880702

  position of ions in fractional coordinates (direct lattice)
     0.500000000  0.500000000  0.773444400
     0.500000000  0.500000000  0.827208118
     0.000000000  0.750000000  0.351605267
     0.250000000  0.000000000  0.351605267
     0.000000000  0.000000000  0.450535089
     0.250000000  0.750000000  0.450535089
     0.000000000  0.749939268  0.550083239
     0.250060732  0.000000000  0.550083239
     0.000000000  0.000000000  0.648745309
     0.249858327  0.750141673  0.648569547
     0.000000000  0.250000000  0.351605267
     0.250000000  0.500000000  0.351605267
     0.000000000  0.500000000  0.450535089
     0.250000000  0.250000000  0.450535089
     0.000000000  0.250060732  0.550083239
     0.250378379  0.500000000  0.550219524
     0.000000000  0.500000000  0.648615280
     0.249858327  0.249858327  0.648569547
     0.500000000  0.750000000  0.351605267
     0.750000000  0.000000000  0.351605267
     0.500000000  0.000000000  0.450535089
     0.750000000  0.750000000  0.450535089
     0.500000000  0.749621621  0.550219524
     0.749939268  0.000000000  0.550083239
     0.500000000  0.000000000  0.648615280
     0.750141673  0.750141673  0.648569547
     0.500000000  0.250000000  0.351605267
     0.750000000  0.500000000  0.351605267
     0.500000000  0.500000000  0.450535089
     0.750000000  0.250000000  0.450535089
     0.500000000  0.250378379  0.550219524
     0.749621621  0.500000000  0.550219524
     0.500000000  0.500000000  0.650616960
     0.750141673  0.249858327  0.648569547
     0.000000000  0.750000000  0.450535089
     0.250000000  0.000000000  0.450535089
     0.000000000  0.000000000  0.351605267
     0.250000000  0.750000000  0.351605267
     0.000000000  0.750218533  0.650979255
     0.249781467  0.000000000  0.650979255
     0.000000000  0.000000000  0.549809890
     0.249945770  0.750054230  0.549859113
     0.000000000  0.250000000  0.450535089
     0.250000000  0.500000000  0.450535089
     0.000000000  0.500000000  0.351605267
     0.250000000  0.250000000  0.351605267
     0.000000000  0.249781467  0.650979255
     0.248822710  0.500000000  0.650882872
     0.000000000  0.500000000  0.549762666
     0.249945770  0.249945770  0.549859113
     0.500000000  0.750000000  0.450535089
     0.750000000  0.000000000  0.450535089
     0.500000000  0.000000000  0.351605267
     0.750000000  0.750000000  0.351605267
     0.500000000  0.751177290  0.650882872
     0.750218533  0.000000000  0.650979255
     0.500000000  0.000000000  0.549762666
     0.750054230  0.750054230  0.549859113
     0.500000000  0.250000000  0.450535089
     0.750000000  0.500000000  0.450535089
     0.500000000  0.500000000  0.351605267
     0.750000000  0.250000000  0.351605267
     0.500000000  0.248822710  0.650882872
     0.751177290  0.500000000  0.650882872
     0.500000000  0.500000000  0.550231357
     0.750054230  0.249945770  0.549859113

  ion indices of the primitive-cell ions
   primitive index   ion index
                 1           1
                 2           2
                 3           3
                 4           4
                 5           5
                 6           6
                 7           7
                 8           8
                 9           9
                10          10
                11          11
                12          12
                13          13
                14          14
                15          15
                16          16
                17          17
                18          18
                19          19
                20          20
                21          21
                22          22
                23          23
                24          24
                25          25
                26          26
                27          27
                28          28
                29          29
                30          30
                31          31
                32          32
                33          33
                34          34
                35          35
                36          36
                37          37
                38          38
                39          39
                40          40
                41          41
                42          42
                43          43
                44          44
                45          45
                46          46
                47          47
                48          48
                49          49
                50          50
                51          51
                52          52
                53          53
                54          54
                55          55
                56          56
                57          57
                58          58
                59          59
                60          60
                61          61
                62          62
                63          63
                64          64
                65          65
                66          66

----------------------------------------------------------------------------------------



 KPOINTS: pymatgen v2020.8.13 with grid density = 

Automatic generation of k-mesh.
 Grid dimensions read from file:
 generate k-points for:    2    2    1

 Generating k-lattice:

  Cartesian coordinates                     Fractional coordinates (reciprocal lattice)
     0.059234796  0.000000000  0.000000000     0.500000000  0.000000000  0.000000000
     0.000000000  0.059234796  0.000000000     0.000000000  0.500000000  0.000000000
     0.000000000  0.000000000  0.046880702     0.000000000  0.000000000  1.000000000

  Length of vectors
     0.059234796  0.059234796  0.046880702

  Shift w.r.t. Gamma in fractional coordinates (k-lattice)
     0.000000000  0.000000000  0.000000000

 
 Subroutine IBZKPT returns following result:
 ===========================================
 
 Found      3 irreducible k-points:
 
 Following reciprocal coordinates:
            Coordinates               Weight
  0.000000  0.000000  0.000000      1.000000
  0.500000  0.000000  0.000000      2.000000
  0.500000  0.500000  0.000000      1.000000
 
 Following cartesian coordinates:
            Coordinates               Weight
  0.000000  0.000000  0.000000      1.000000
  0.059235  0.000000  0.000000      2.000000
  0.059235  0.059235  0.000000      1.000000
 
 
 Subroutine IBZKPT_HF returns following result:
 ==============================================
 
 Found      4 k-points in 1st BZ
 the following      4 k-points will be used (e.g. in the exchange kernel)
 Following reciprocal coordinates:   # in IRBZ
  0.000000  0.000000  0.000000    0.25000000   1 t-inv F
  0.500000  0.000000  0.000000    0.25000000   2 t-inv F
  0.500000  0.500000  0.000000    0.25000000   3 t-inv F
 -0.000000  0.500000  0.000000    0.25000000   2 t-inv F


--------------------------------------------------------------------------------------------------------




 Dimension of arrays:
   k-points           NKPTS =      3   k-points in BZ     NKDIM =      4   number of bands    NBANDS=    320
   number of dos      NEDOS =    301   number of ions     NIONS =     66
   non local maximal  LDIM  =      5   non local SUM 2l+1 LMDIM =     13
   total plane-waves  NPLWV = 373248
   max r-space proj   IRMAX =      1   max aug-charges    IRDMAX=   5039
   dimension x,y,z NGX =    54 NGY =   54 NGZ =  128
   dimension x,y,z NGXF=   108 NGYF=  108 NGZF=  256
   support grid    NGXF=   108 NGYF=  108 NGZF=  256
   ions per type =               1   1  32  32
   NGX,Y,Z   is equivalent  to a cutoff of  10.64, 10.64,  9.98 a.u.
   NGXF,Y,Z  is equivalent  to a cutoff of  21.27, 21.27, 19.95 a.u.

 SYSTEM =  MgO-rocksalt                            
 POSCAR =   C  O Mg  O                             

 Startparameter for this run:
   NWRITE =      2    write-flag & timer
   PREC   = normal    normal or accurate (medium, high low for compatibility)
   ISTART =      0    job   : 0-new  1-cont  2-samecut
   ICHARG =      2    charge: 1-file 2-atom 10-const
   ISPIN  =      1    spin polarized calculation?
   LNONCOLLINEAR =      F non collinear calculations
   LSORBIT =      F    spin-orbit coupling
   INIWAV =      1    electr: 0-lowe 1-rand  2-diag
   LASPH  =      T    aspherical Exc in radial PAW
 Electronic Relaxation 1
   ENCUT  =  600.0 eV  44.10 Ry    6.64 a.u.  16.86 16.86 42.60*2*pi/ulx,y,z
   ENINI  =  600.0     initial cutoff
   ENAUG  =  758.8 eV  augmentation charge cutoff
   NELM   =    200;   NELMIN=  8; NELMDL= -5     # of ELM steps 
   EDIFF  = 0.1E-05   stopping-criterion for ELM
   LREAL  =      F    real-space projection
   NLSPLINE    = F    spline interpolate recip. space projectors
   LCOMPAT=      F    compatible to vasp.4.4
   GGA_COMPAT  = T    GGA compatible to vasp.4.4-vasp.4.6
   LMAXPAW     = -100 max onsite density
   LMAXMIX     =    2 max onsite mixed and CHGCAR
   VOSKOWN=      0    Vosko Wilk Nusair interpolation
   ROPT   =    0.00000   0.00000   0.00000   0.00000
 Ionic relaxation
   EDIFFG = -.1E-01   stopping-criterion for IOM
   NSW    =      0    number of steps for IOM
   NBLOCK =      1;   KBLOCK =      1    inner block; outer block 
   IBRION =     -1    ionic relax: 0-MD 1-quasi-New 2-CG
   NFREE  =      0    steps in history (QN), initial steepest desc. (CG)
   ISIF   =      2    stress and relaxation
   IWAVPR =     10    prediction:  0-non 1-charg 2-wave 3-comb
   ISYM   =      2    0-nonsym 1-usesym 2-fastsym
   LCORR  =      T    Harris-Foulkes like correction to forces

   POTIM  = 0.5000    time-step for ionic-motion
   TEIN   =    0.0    initial temperature
   TEBEG  =    0.0;   TEEND  =   0.0 temperature during run
   SMASS  =  -3.00    Nose mass-parameter (am)
   estimated Nose-frequenzy (Omega)   =  0.10E-29 period in steps = 0.13E+47 mass=  -0.163E-26a.u.
   SCALEE = 1.0000    scale energy and forces
   NPACO  =    256;   APACO  = 10.0  distance and # of slots for P.C.
   PSTRESS=    0.0 pullay stress

  Mass of Ions in am
   POMASS =  12.01 16.00 24.30 16.00
  Ionic Valenz
   ZVAL   =   4.00  6.00  8.00  6.00
  Atomic Wigner-Seitz radii
   RWIGS  =  -1.00 -1.00 -1.00 -1.00
  virtual crystal weights 
   VCA    =   1.00  1.00  1.00  1.00
   NELECT =     458.0000    total number of electrons
   NUPDOWN=      -1.0000    fix difference up-down

 DOS related values:
   EMIN   =  10.00;   EMAX   =-10.00  energy-range for DOS
   EFERMI =   0.00
   ISMEAR =     0;   SIGMA  =   0.05  broadening in eV -4-tet -1-fermi 0-gaus

 Electronic relaxation 2 (details)
   IALGO  =     58    algorithm
   LDIAG  =      T    sub-space diagonalisation (order eigenvalues)
   LSUBROT=      F    optimize rotation matrix (better conditioning)
   TURBO    =      0    0=normal 1=particle mesh
   IRESTART =      0    0=no restart 2=restart with 2 vectors
   NREBOOT  =      0    no. of reboots
   NMIN     =      0    reboot dimension
   EREF     =   0.00    reference energy to select bands
   IMIX   =      4    mixing-type and parameters
     AMIX     =   0.40;   BMIX     =  1.00
     AMIX_MAG =   1.60;   BMIX_MAG =  1.00
     AMIN     =   0.10
     WC   =   100.;   INIMIX=   1;  MIXPRE=   1;  MAXMIX= -45

 Intra band minimization:
   WEIMIN = 0.0000     energy-eigenvalue tresh-hold
   EBREAK =  0.78E-09  absolut break condition
   DEPER  =   0.30     relativ break condition  

   TIME   =   0.40     timestep for ELM

  volume/ion in A,a.u.               =      23.03       155.40
  Fermi-wavevector in a.u.,A,eV,Ry     =   1.097571  2.074108 16.390423  1.204662
  Thomas-Fermi vector in A             =   2.233933

 Write flags
   LWAVE        =      F    write WAVECAR
   LDOWNSAMPLE  =      F    k-point downsampling of WAVECAR
   LCHARG       =      F    write CHGCAR
   LVTOT        =      F    write LOCPOT, total local potential
   LVHAR        =      F    write LOCPOT, Hartree potential only
   LELF         =      F    write electronic localiz. function (ELF)
   LORBIT       =      0    0 simple, 1 ext, 2 COOP (PROOUT), +10 PAW based schemes


 Dipole corrections
   LMONO  =      F    monopole corrections only (constant potential shift)
   LDIPOL =      T    correct potential (dipole corrections)
   IDIPOL =      3    1-x, 2-y, 3-z, 4-all directions 
   EPSILON=  1.0000000 bulk dielectric constant

 Exchange correlation treatment:
   GGA     =    B5    GGA type
   LEXCH   =    12    internal setting for exchange type
   LIBXC   =     F    Libxc                    
   VOSKOWN =     0    Vosko Wilk Nusair interpolation
   EXXOEP  =     0    0=HF, 1=EXX-LHF (local Hartree Fock) 2=EXX OEP
   LHFCALC =     T    Hartree Fock is set to
   LSYMGRAD=     F    symmetrize gradient (conserves proper symmetry)
   PRECFOCK=normal    Normal, Fast or Accurate (Low or Medium for compatibility)
   LRHFCALC=     F    long range Hartree Fock
   LRSCOR  =     F    long range correlation only (use DFT for short range part)
   LTHOMAS =     F    Thomas Fermi screening in HF
   LMODELHF=     F    short range full HF, long range fraction AEXX
   LFOCKACE=     T    use Adeptively-Compressed-Exchange operator
   ENCUT4O =  -1.0   cutoff for four orbital integrals eV
   LMAXFOCK=     4    L truncation for augmentation on plane wave grid
   LMAXFOCKAE=  -1    L truncation for all-electron charge restoration on plane wave grid
   NMAXFOCKAE=   1    number of basis functions for all-electron charge restoration
   LFOCKAEDFT=     F  apply the AE augmentation even for DFT
   NKREDX  =     1    reduce k-point grid by
   NKREDY  =     1    reduce k-point grid by
   NKREDZ  =     1    reduce k-point grid by
   SHIFTRED=     F    shift reduced grid of Gamma
   HFKIDENT=     F    idential grid for each k-point
   ODDONLY =     F    use only odd q-grid points
   EVENONLY=     F    use only even q-grid points
   HFALPHA =   -1.0000 decay constant for conv. correction
   MCALPHA =    0.0000 extent of test-charge in conv. correction in multipole expansion
   AEXX    =    0.2000 exact exchange contribution
   HFSCREEN=    0.0000 screening length (either q_TF or 0.3 A-1)
   HFSCREENC=   0.0000 screening length for correlation (either q_TF or 0.3 A-1)
   HFRCUT  =    0.0000 spherical cutoff for potential kernel
   ALDAX   =    0.8000 LDA exchange part
   AGGAX   =    0.7200 GGA exchange part
   ALDAC   =    0.1900 LDA correlation
   AGGAC   =    0.8100 GGA correlation
   ENCUTFOCK=  -1.0 apply spherical cutoff to Coloumb kernel
   NBANDSGWLOW=     1    first orbital included in HF term
   NBLOCK_FOCK=    64    blocking factor in FOCK_ACC

 Linear response parameters
   LEPSILON=     F    determine dielectric tensor
   LRPA    =     F    only Hartree local field effects (RPA)
   LNABLA  =     F    use nabla operator in PAW spheres
   LVEL    =     F    velocity operator in full k-point grid
   CSHIFT  =0.1000    complex shift for real part using Kramers Kronig
   OMEGAMAX=  -1.0    maximum frequency
   DEG_THRESHOLD= 0.2000000E-02 threshold for treating states as degnerate
   RTIME   =   -0.100 relaxation time in fs
  (WPLASMAI=    0.000 imaginary part of plasma frequency in eV, 0.658/RTIME)
   DFIELD  = 0.0000000 0.0000000 0.0000000 field for delta impulse in time

  Optional k-point grid parameters
   LKPOINTS_OPT  =     F    use optional k-point grid
   KPOINTS_OPT_MODE=     1    mode for optional k-point grid

 Orbital magnetization related:
   ORBITALMAG=     F  switch on orbital magnetization
   LCHIMAG   =     F  perturbation theory with respect to B field
   DQ        =  0.001000  dq finite difference perturbation B field
   LLRAUG    =     F  two centre corrections for induced B field



--------------------------------------------------------------------------------------------------------


 Static calculation
 charge density and potential will be updated during run
 non-spin polarized calculation
 Conjugate gradient for all bands (Freysoldt, et al. PRB 79, 241103 (2009))
 preconditioned conjugated gradient                                        
 perform sub-space diagonalisation
    before iterative eigenvector-optimisation
 modified Broyden-mixing scheme, WC =      100.0
 initial mixing is a Kerker type mixing with AMIX =  0.4000 and BMIX =      1.0000
 Hartree-type preconditioning will be used
 using additional bands           91
 reciprocal scheme for non local part
 use partial core corrections
 no Harris-corrections to forces 
 use gradient corrections 
 use of overlap-Matrix (Vanderbilt PP)
 Gauss-broadening in eV      SIGMA  =   0.05


--------------------------------------------------------------------------------------------------------


  energy-cutoff  :      600.00
  volume of cell :     1519.82
      direct lattice vectors                 reciprocal lattice vectors
     8.440984654  0.000000000  0.000000000     0.118469591  0.000000000  0.000000000
     0.000000000  8.440984654  0.000000000     0.000000000  0.118469591  0.000000000
     0.000000000  0.000000000 21.330738491     0.000000000  0.000000000  0.046880702

  length of vectors
     8.440984654  8.440984654 21.330738491     0.118469591  0.118469591  0.046880702



 k-points in units of 2pi/SCALE and weight: pymatgen v2020.8.13 with grid density = 
   0.00000000  0.00000000  0.00000000       0.250
   0.05923480  0.00000000  0.00000000       0.500
   0.05923480  0.05923480  0.00000000       0.250

 k-points in reciprocal lattice and weights: pymatgen v2020.8.13 with grid density = 
   0.00000000  0.00000000  0.00000000       0.250
   0.50000000  0.00000000  0.00000000       0.500
   0.50000000  0.50000000  0.00000000       0.250

 position of ions in fractional coordinates (direct lattice) 
   0.50000000  0.50000000  0.77344440
   0.50000000  0.50000000  0.82720812
   0.00000000  0.75000000  0.35160527
   0.25000000  0.00000000  0.35160527
   0.00000000  0.00000000  0.45053509
   0.25000000  0.75000000  0.45053509
   0.00000000  0.74993927  0.55008324
   0.25006073  0.00000000  0.55008324
   0.00000000  0.00000000  0.64874531
   0.24985833  0.75014167  0.64856955
   0.00000000  0.25000000  0.35160527
   0.25000000  0.50000000  0.35160527
   0.00000000  0.50000000  0.45053509
   0.25000000  0.25000000  0.45053509
   0.00000000  0.25006073  0.55008324
   0.25037838  0.50000000  0.55021952
   0.00000000  0.50000000  0.64861528
   0.24985833  0.24985833  0.64856955
   0.50000000  0.75000000  0.35160527
   0.75000000  0.00000000  0.35160527
   0.50000000  0.00000000  0.45053509
   0.75000000  0.75000000  0.45053509
   0.50000000  0.74962162  0.55021952
   0.74993927  0.00000000  0.55008324
   0.50000000  0.00000000  0.64861528
   0.75014167  0.75014167  0.64856955
   0.50000000  0.25000000  0.35160527
   0.75000000  0.50000000  0.35160527
   0.50000000  0.50000000  0.45053509
   0.75000000  0.25000000  0.45053509
   0.50000000  0.25037838  0.55021952
   0.74962162  0.50000000  0.55021952
   0.50000000  0.50000000  0.65061696
   0.75014167  0.24985833  0.64856955
   0.00000000  0.75000000  0.45053509
   0.25000000  0.00000000  0.45053509
   0.00000000  0.00000000  0.35160527
   0.25000000  0.75000000  0.35160527
   0.00000000  0.75021853  0.65097926
   0.24978147  0.00000000  0.65097926
   0.00000000  0.00000000  0.54980989
   0.24994577  0.75005423  0.54985911
   0.00000000  0.25000000  0.45053509
   0.25000000  0.50000000  0.45053509
   0.00000000  0.50000000  0.35160527
   0.25000000  0.25000000  0.35160527
   0.00000000  0.24978147  0.65097926
   0.24882271  0.50000000  0.65088287
   0.00000000  0.50000000  0.54976267
   0.24994577  0.24994577  0.54985911
   0.50000000  0.75000000  0.45053509
   0.75000000  0.00000000  0.45053509
   0.50000000  0.00000000  0.35160527
   0.75000000  0.75000000  0.35160527
   0.50000000  0.75117729  0.65088287
   0.75021853  0.00000000  0.65097926
   0.50000000  0.00000000  0.54976267
   0.75005423  0.75005423  0.54985911
   0.50000000  0.25000000  0.45053509
   0.75000000  0.50000000  0.45053509
   0.50000000  0.50000000  0.35160527
   0.75000000  0.25000000  0.35160527
   0.50000000  0.24882271  0.65088287
   0.75117729  0.50000000  0.65088287
   0.50000000  0.50000000  0.55023136
   0.75005423  0.24994577  0.54985911

 position of ions in cartesian coordinates  (Angst):
   4.22049233  4.22049233 16.49814023
   4.22049233  4.22049233 17.64496005
   0.00000000  6.33073849  7.50000000
   2.11024616  0.00000000  7.50000000
   0.00000000  0.00000000  9.61024616
   2.11024616  6.33073849  9.61024616
   0.00000000  6.33022585 11.73368172
   2.11075880  0.00000000 11.73368172
   0.00000000  0.00000000 13.83821654
   2.10905031  6.33193435 13.83446740
   0.00000000  2.11024616  7.50000000
   2.11024616  4.22049233  7.50000000
   0.00000000  4.22049233  9.61024616
   2.11024616  2.11024616  9.61024616
   0.00000000  2.11075880 11.73368172
   2.11344006  4.22049233 11.73658877
   0.00000000  4.22049233 13.83544293
   2.10905031  2.10905031 13.83446740
   4.22049233  6.33073849  7.50000000
   6.33073849  0.00000000  7.50000000
   4.22049233  0.00000000  9.61024616
   6.33073849  6.33073849  9.61024616
   4.22049233  6.32754460 11.73658877
   6.33022585  0.00000000 11.73368172
   4.22049233  0.00000000 13.83544293
   6.33193435  6.33193435 13.83446740
   4.22049233  2.11024616  7.50000000
   6.33073849  4.22049233  7.50000000
   4.22049233  4.22049233  9.61024616
   6.33073849  2.11024616  9.61024616
   4.22049233  2.11344006 11.73658877
   6.32754460  4.22049233 11.73658877
   4.22049233  4.22049233 13.87814023
   6.33193435  2.10905031 13.83446740
   0.00000000  6.33073849  9.61024616
   2.11024616  0.00000000  9.61024616
   0.00000000  0.00000000  7.50000000
   2.11024616  6.33073849  7.50000000
   0.00000000  6.33258312 13.88586825
   2.10840153  0.00000000 13.88586825
   0.00000000  0.00000000 11.72785099
   2.10978841  6.33119624 11.72890095
   0.00000000  2.11024616  9.61024616
   2.11024616  4.22049233  9.61024616
   0.00000000  4.22049233  7.50000000
   2.11024616  2.11024616  7.50000000
   0.00000000  2.10840153 13.88586825
   2.10030867  4.22049233 13.88381232
   0.00000000  4.22049233 11.72684365
   2.10978841  2.10978841 11.72890095
   4.22049233  6.33073849  9.61024616
   6.33073849  0.00000000  9.61024616
   4.22049233  0.00000000  7.50000000
   6.33073849  6.33073849  7.50000000
   4.22049233  6.34067598 13.88381232
   6.33258312  0.00000000 13.88586825
   4.22049233  0.00000000 11.72684365
   6.33119624  6.33119624 11.72890095
   4.22049233  2.11024616  9.61024616
   6.33073849  4.22049233  9.61024616
   4.22049233  4.22049233  7.50000000
   6.33073849  2.11024616  7.50000000
   4.22049233  2.10030867 13.88381232
   6.34067598  4.22049233 13.88381232
   4.22049233  4.22049233 11.73684118
   6.33119624  2.10978841 11.72890095



--------------------------------------------------------------------------------------------------------


 k-point   1 :   0.0000 0.0000 0.0000  plane waves:   50745
 k-point   2 :   0.5000 0.0000 0.0000  plane waves:   50798
 k-point   3 :   0.5000 0.5000 0.0000  plane waves:   50752

 maximum and minimum number of plane-waves per node :      6394     6276

 maximum number of plane-waves:     50798
 maximum index in each direction: 
   IXMAX=   16   IYMAX=   16   IZMAX=   42
   IXMIN=  -17   IYMIN=  -17   IZMIN=  -42


 parallel 3D FFT for wavefunctions:
    minimum data exchange during FFTs selected (reduces bandwidth)
 parallel 3D FFT for charge:
    minimum data exchange during FFTs selected (reduces bandwidth)


 Radii for the augmentation spheres in the non-local exchange
 for species   1 augmentation radius   0.874 (default was   0.699)
       energy cutoff for augmentation   2400.0
 for species   2 augmentation radius   0.902 (default was   0.722)
       energy cutoff for augmentation   2400.0
 for species   3 augmentation radius   1.037 (default was   0.829)
       energy cutoff for augmentation   2400.0
 for species   4 augmentation radius   0.902 (default was   0.722)
       energy cutoff for augmentation   2400.0

 real space projection operators:
  total allocation   :       8964.28 KBytes
  max/ min on nodes  :       1251.34        827.75

 Maximum index for augmentation-charges in exchange          164
  SETUP_FOCK is finished

 total amount of memory used by VASP MPI-rank0    60468. kBytes
=======================================================================

   base      :      30000. kBytes
   nonl-proj :      14893. kBytes
   fftplans  :       3932. kBytes
   grid      :       3944. kBytes
   one-center:         73. kBytes
   HF        :        101. kBytes
   nonlr-proj:       2779. kBytes
   wavefun   :       4746. kBytes

     INWAV:  cpu time      0.0001: real time      0.0004
 Broyden mixing: mesh for mixing (old mesh)
   NGX = 33   NGY = 33   NGZ = 85
  (NGX  =108   NGY  =108   NGZ  =256)
  gives a total of  92565 points

 initial charge density was supplied:
 charge density of overlapping atoms calculated
 number of electron     458.0000000 magnetization 
 keeping initial charge density in first step


--------------------------------------------------------------------------------------------------------


 Maximum index for augmentation-charges          334 (set IRDMAX)


--------------------------------------------------------------------------------------------------------


    FEWALD:  cpu time      0.0028: real time      0.0028


--------------------------------------- Iteration      1(   1)  ---------------------------------------


    POTLOK:  cpu time      0.0635: real time      0.0644
    SETDIJ:  cpu time      0.1909: real time      0.1911
    TRIAL :  cpu time     18.8950: real time     18.9965
    CORREC:  cpu time      0.0011: real time      0.0012
    --------------------------------------------
      LOOP:  cpu time     19.1522: real time     19.3234

 eigenvalue-minimisations  :  2304
 total energy-change (2. order) : 0.1340180E+04  (-0.3092734E+05)
 number of electron     458.0000000 magnetization 
 augmentation part      458.0000000 magnetization 

 DIPCOR: dipole corrections for dipol
 direction  3 min pos     1,
 dipolmoment           0.000000      0.000000     -0.000386 electrons x Angstroem
 Tr[quadrupol]     -6318.708165

 energy correction for charged system         0.000000 eV
 dipol+quadrupol energy correction           -0.000000 eV
 added-field ion interaction          0.003204 eV  (added to PSCEN)


 Free energy of the ion-electron system (eV)
  ---------------------------------------------------
  alpha Z        PSCENC =       907.96730817
  Ewald energy   TEWEN  =    136737.24382446
  -Hartree energ DENC   =   -172837.04225556
  -exchange      EXHF   =         0.00000000
  -V(xc)+E(xc)   XCENC  =      1789.08470984
  PAW double counting   =     32310.01086261   -38519.19434489
  entropy T*S    EENTRO =        -0.02288878
  eigenvalues    EBANDS =     -7243.56161679
  atomic energy  EATOM  =     48195.69443388
  ---------------------------------------------------
  free energy    TOTEN  =      1340.18003295 eV

  energy without entropy =     1340.20292172  energy(sigma->0) =     1340.19147734
  exchange ACFDT corr.  =         0.00000000  see jH, gK, PRB 81, 115126


--------------------------------------------------------------------------------------------------------




--------------------------------------- Iteration      1(   2)  ---------------------------------------


    TRIAL :  cpu time      2.8345: real time      2.8360
    CORREC:  cpu time      0.0002: real time      0.0002
    --------------------------------------------
      LOOP:  cpu time      2.8407: real time      2.8513

 eigenvalue-minimisations  :  2304
 total energy-change (2. order) :-0.4302272E+04  (-0.4229805E+04)
 number of electron     458.0000000 magnetization 
 augmentation part      458.0000000 magnetization 

 DIPCOR: dipole corrections for dipol
 direction  3 min pos     1,
 dipolmoment           0.000000      0.000000     -0.000386 electrons x Angstroem
 Tr[quadrupol]     -6318.708165

 energy correction for charged system         0.000000 eV
 dipol+quadrupol energy correction           -0.000000 eV
 added-field ion interaction          0.003204 eV  (added to PSCEN)


 Free energy of the ion-electron system (eV)
  ---------------------------------------------------
  alpha Z        PSCENC =       907.96730817
  Ewald energy   TEWEN  =    136737.24382446
  -Hartree energ DENC   =   -172837.04225556
  -exchange      EXHF   =         0.00000000
  -V(xc)+E(xc)   XCENC  =      1789.08470984
  PAW double counting   =     32310.01086261   -38519.19434489
  entropy T*S    EENTRO =        -0.00000000
  eigenvalues    EBANDS =    -11545.85629372
  atomic energy  EATOM  =     48195.69443388
  ---------------------------------------------------
  free energy    TOTEN  =     -2962.09175520 eV

  energy without entropy =    -2962.09175520  energy(sigma->0) =    -2962.09175520
  exchange ACFDT corr.  =         0.00000000  see jH, gK, PRB 81, 115126


--------------------------------------------------------------------------------------------------------




--------------------------------------- Iteration      1(   3)  ---------------------------------------


    TRIAL :  cpu time      3.0153: real time      3.0156
    CORREC:  cpu time      0.0003: real time      0.0003
    --------------------------------------------
      LOOP:  cpu time      3.0219: real time      3.0304

 eigenvalue-minimisations  :  2304
 total energy-change (2. order) :-0.3161791E+03  (-0.3140301E+03)
 number of electron     458.0000000 magnetization 
 augmentation part      458.0000000 magnetization 

 DIPCOR: dipole corrections for dipol
 direction  3 min pos     1,
 dipolmoment           0.000000      0.000000     -0.000386 electrons x Angstroem
 Tr[quadrupol]     -6318.708165

 energy correction for charged system         0.000000 eV
 dipol+quadrupol energy correction           -0.000000 eV
 added-field ion interaction          0.003204 eV  (added to PSCEN)


 Free energy of the ion-electron system (eV)
  ---------------------------------------------------
  alpha Z        PSCENC =       907.96730817
  Ewald energy   TEWEN  =    136737.24382446
  -Hartree energ DENC   =   -172837.04225556
  -exchange      EXHF   =         0.00000000
  -V(xc)+E(xc)   XCENC  =      1789.08470984
  PAW double counting   =     32310.01086261   -38519.19434489
  entropy T*S    EENTRO =        -0.00000000
  eigenvalues    EBANDS =    -11862.03543259
  atomic energy  EATOM  =     48195.69443388
  ---------------------------------------------------
  free energy    TOTEN  =     -3278.27089407 eV

  energy without entropy =    -3278.27089407  energy(sigma->0) =    -3278.27089407
  exchange ACFDT corr.  =         0.00000000  see jH, gK, PRB 81, 115126


--------------------------------------------------------------------------------------------------------




--------------------------------------- Iteration      1(   4)  ---------------------------------------


    TRIAL :  cpu time      3.1453: real time      3.1455
    CORREC:  cpu time      0.0003: real time      0.0003
    --------------------------------------------
      LOOP:  cpu time      3.1597: real time      3.1603

 eigenvalue-minimisations  :  2368
 total energy-change (2. order) :-0.6180360E+01  (-0.6173389E+01)
 number of electron     458.0000000 magnetization 
 augmentation part      458.0000000 magnetization 

 DIPCOR: dipole corrections for dipol
 direction  3 min pos     1,
 dipolmoment           0.000000      0.000000     -0.000386 electrons x Angstroem
 Tr[quadrupol]     -6318.708165

 energy correction for charged system         0.000000 eV
 dipol+quadrupol energy correction           -0.000000 eV
 added-field ion interaction          0.003204 eV  (added to PSCEN)


 Free energy of the ion-electron system (eV)
  ---------------------------------------------------
  alpha Z        PSCENC =       907.96730817
  Ewald energy   TEWEN  =    136737.24382446
  -Hartree energ DENC   =   -172837.04225556
  -exchange      EXHF   =         0.00000000
  -V(xc)+E(xc)   XCENC  =      1789.08470984
  PAW double counting   =     32310.01086261   -38519.19434489
  entropy T*S    EENTRO =        -0.00000000
  eigenvalues    EBANDS =    -11868.21579220
  atomic energy  EATOM  =     48195.69443388
  ---------------------------------------------------
  free energy    TOTEN  =     -3284.45125368 eV

  energy without entropy =    -3284.45125368  energy(sigma->0) =    -3284.45125368
  exchange ACFDT corr.  =         0.00000000  see jH, gK, PRB 81, 115126


--------------------------------------------------------------------------------------------------------




--------------------------------------- Iteration      1(   5)  ---------------------------------------


    POTLOK:  cpu time      0.1177: real time      0.1177
    SETDIJ:  cpu time      0.6330: real time      0.6330
    TRIAL :  cpu time     72.9831: real time     72.9903
    CORREC:  cpu time      0.0003: real time      0.0003
    CHARGE:  cpu time      0.0650: real time      0.0653
    --------------------------------------------
      LOOP:  cpu time     73.8059: real time     73.8212

 eigenvalue-minimisations  :  2240
 total energy-change (2. order) : 0.2747900E+04  (-0.1469485E+01)
 number of electron     457.9999401 magnetization 
 augmentation part      160.7588027 magnetization 

 DIPCOR: dipole corrections for dipol
 direction  3 min pos     1,
 dipolmoment           0.000000      0.000000     -0.000386 electrons x Angstroem
 Tr[quadrupol]     -6318.708165

 energy correction for charged system         0.000000 eV
 dipol+quadrupol energy correction           -0.000000 eV
 added-field ion interaction          0.003204 eV  (added to PSCEN)


 Free energy of the ion-electron system (eV)
  ---------------------------------------------------
  alpha Z        PSCENC =       907.96730817
  Ewald energy   TEWEN  =    136737.24382446
  -Hartree energ DENC   =   -172837.04225556
  -exchange      EXHF   =      1361.71231137
  -V(xc)+E(xc)   XCENC  =      1423.02134580
  PAW double counting   =     32649.43877705   -36331.98648824
  entropy T*S    EENTRO =        -0.00000000
  eigenvalues    EBANDS =    -12642.60042738
  atomic energy  EATOM  =     48195.69443388
  ---------------------------------------------------
  free energy    TOTEN  =      -536.55117044 eV

  energy without entropy =     -536.55117044  energy(sigma->0) =     -536.55117044
  exchange ACFDT corr.  =         0.00000000  see jH, gK, PRB 81, 115126


--------------------------------------------------------------------------------------------------------




--------------------------------------- Iteration      1(   6)  ---------------------------------------


    POTLOK:  cpu time      0.1056: real time      0.1057
    SETDIJ:  cpu time      0.6308: real time      0.6308
    TRIAL :  cpu time     70.5143: real time     70.5223
    CORREC:  cpu time     70.7478: real time     70.7544
    CHARGE:  cpu time      0.0608: real time      0.0608
    --------------------------------------------
      LOOP:  cpu time    142.0764: real time    142.0914

 eigenvalue-minimisations  :     0
 total energy-change (2. order) : 0.2291576E+03  (-0.1219520E+03)
 number of electron     457.9999283 magnetization 
 augmentation part      157.2249450 magnetization 

 DIPCOR: dipole corrections for dipol
 direction  3 min pos     1,
 dipolmoment           0.000000      0.000000      0.336925 electrons x Angstroem
 Tr[quadrupol]     -6349.916387

 energy correction for charged system         0.000000 eV
 dipol+quadrupol energy correction           -0.006758 eV
 added-field ion interaction         -2.799938 eV  (added to PSCEN)


 Free energy of the ion-electron system (eV)
  ---------------------------------------------------
  alpha Z        PSCENC =       902.91007478
  Ewald energy   TEWEN  =    136737.24382446
  -Hartree energ DENC   =   -176912.94593046
  -exchange      EXHF   =      1369.22035814
  -V(xc)+E(xc)   XCENC  =      1540.72675275
  PAW double counting   =     37765.34196235   -41409.04376264
  entropy T*S    EENTRO =        -0.00000000
  eigenvalues    EBANDS =     -8496.54128464
  atomic energy  EATOM  =     48195.69443388
  ---------------------------------------------------
  free energy    TOTEN  =      -307.39357139 eV

  energy without entropy =     -307.39357139  energy(sigma->0) =     -307.39357139
  exchange ACFDT corr.  =         0.00000000  see jH, gK, PRB 81, 115126


--------------------------------------------------------------------------------------------------------




--------------------------------------- Iteration      1(   7)  ---------------------------------------


    POTLOK:  cpu time      0.1178: real time      0.1178
    SETDIJ:  cpu time      0.6316: real time      0.6317
    TRIAL :  cpu time     70.2022: real time     70.2092
    CORREC:  cpu time     70.7142: real time     70.7198
    CHARGE:  cpu time      0.0585: real time      0.0585
    --------------------------------------------
      LOOP:  cpu time    141.7339: real time    141.7555

 eigenvalue-minimisations  :     0
 total energy-change (2. order) :-0.1226887E+03  (-0.9931410E+01)
 number of electron     457.9999268 magnetization 
 augmentation part      155.2745751 magnetization 

 DIPCOR: dipole corrections for dipol
 direction  3 min pos     1,
 dipolmoment           0.000000      0.000000      0.269195 electrons x Angstroem
 Tr[quadrupol]     -6360.508926

 energy correction for charged system         0.000000 eV
 dipol+quadrupol energy correction           -0.004314 eV
 added-field ion interaction         -2.237081 eV  (added to PSCEN)


 Free energy of the ion-electron system (eV)
  ---------------------------------------------------
  alpha Z        PSCENC =       904.83020768
  Ewald energy   TEWEN  =    136737.24382446
  -Hartree energ DENC   =   -174849.88259766
  -exchange      EXHF   =      1315.43547031
  -V(xc)+E(xc)   XCENC  =      1475.34329919
  PAW double counting   =     36487.94059556   -40187.17153379
  entropy T*S    EENTRO =        -0.00000000
  eigenvalues    EBANDS =    -10509.51599833
  atomic energy  EATOM  =     48195.69443388
  ---------------------------------------------------
  free energy    TOTEN  =      -430.08229870 eV

  energy without entropy =     -430.08229870  energy(sigma->0) =     -430.08229870
  exchange ACFDT corr.  =        -0.00000000  see jH, gK, PRB 81, 115126


--------------------------------------------------------------------------------------------------------




--------------------------------------- Iteration      1(   8)  ---------------------------------------


    POTLOK:  cpu time      0.1050: real time      0.1050
    SETDIJ:  cpu time      0.6312: real time      0.6315
    TRIAL :  cpu time     70.3883: real time     70.3954
    CORREC:  cpu time     70.8997: real time     70.9080
    CHARGE:  cpu time      0.0553: real time      0.0553
    --------------------------------------------
      LOOP:  cpu time    142.0949: real time    142.1108

 eigenvalue-minimisations  :     0
 total energy-change (2. order) :-0.9991687E+01  (-0.6647937E+01)
 number of electron     457.9999246 magnetization 
 augmentation part      155.3751571 magnetization 

 DIPCOR: dipole corrections for dipol
 direction  3 min pos     1,
 dipolmoment           0.000000      0.000000      0.140029 electrons x Angstroem
 Tr[quadrupol]     -6361.615465

 energy correction for charged system         0.000000 eV
 dipol+quadrupol energy correction           -0.001167 eV
 added-field ion interaction         -1.163678 eV  (added to PSCEN)


 Free energy of the ion-electron system (eV)
  ---------------------------------------------------
  alpha Z        PSCENC =       906.12195931
  Ewald energy   TEWEN  =    136737.24382446
  -Hartree energ DENC   =   -174893.90424358
  -exchange      EXHF   =      1309.25410793
  -V(xc)+E(xc)   XCENC  =      1466.83119424
  PAW double counting   =     36395.54773567   -40032.91508712
  entropy T*S    EENTRO =        -0.00000000
  eigenvalues    EBANDS =    -10523.94791020
  atomic energy  EATOM  =     48195.69443388
  ---------------------------------------------------
  free energy    TOTEN  =      -440.07398542 eV

  energy without entropy =     -440.07398542  energy(sigma->0) =     -440.07398542
  exchange ACFDT corr.  =        -0.00000000  see jH, gK, PRB 81, 115126


--------------------------------------------------------------------------------------------------------




--------------------------------------- Iteration      1(   9)  ---------------------------------------


    POTLOK:  cpu time      0.1062: real time      0.1062
    SETDIJ:  cpu time      0.6322: real time      0.6324
    TRIAL :  cpu time     70.3813: real time     70.3893
    CORREC:  cpu time     70.8848: real time     70.8911
    CHARGE:  cpu time      0.0566: real time      0.0566
    --------------------------------------------
      LOOP:  cpu time    142.0672: real time    142.0908

 eigenvalue-minimisations  :     0
 total energy-change (2. order) :-0.6497500E+01  (-0.3036798E+01)
 number of electron     457.9999245 magnetization 
 augmentation part      155.3127494 magnetization 

 DIPCOR: dipole corrections for dipol
 direction  3 min pos     1,
 dipolmoment           0.000000      0.000000      0.061532 electrons x Angstroem
 Tr[quadrupol]     -6353.924020

 energy correction for charged system         0.000000 eV
 dipol+quadrupol energy correction           -0.000225 eV
 added-field ion interaction         -0.511351 eV  (added to PSCEN)


 Free energy of the ion-electron system (eV)
  ---------------------------------------------------
  alpha Z        PSCENC =       907.21894869
  Ewald energy   TEWEN  =    136737.24382446
  -Hartree energ DENC   =   -174789.97665260
  -exchange      EXHF   =      1306.44977123
  -V(xc)+E(xc)   XCENC  =      1464.98817685
  PAW double counting   =     36279.88563833   -39957.61322171
  entropy T*S    EENTRO =        -0.00000000
  eigenvalues    EBANDS =    -10590.46240492
  atomic energy  EATOM  =     48195.69443388
  ---------------------------------------------------
  free energy    TOTEN  =      -446.57148580 eV

  energy without entropy =     -446.57148580  energy(sigma->0) =     -446.57148580
  exchange ACFDT corr.  =        -0.00000000  see jH, gK, PRB 81, 115126


--------------------------------------------------------------------------------------------------------




--------------------------------------- Iteration      1(  10)  ---------------------------------------


    POTLOK:  cpu time      0.1079: real time      0.1079
    SETDIJ:  cpu time      0.6324: real time      0.6324
    TRIAL :  cpu time     70.4502: real time     70.4551
    CORREC:  cpu time     71.0054: real time     71.0113
    CHARGE:  cpu time      0.0562: real time      0.0562
    --------------------------------------------
      LOOP:  cpu time    142.2708: real time    142.2819

 eigenvalue-minimisations  :     0
 total energy-change (2. order) :-0.3071692E+01  (-0.1055091E+01)
 number of electron     457.9999252 magnetization 
 augmentation part      155.1899197 magnetization 

 DIPCOR: dipole corrections for dipol
 direction  3 min pos     1,
 dipolmoment           0.000000      0.000000      0.098574 electrons x Angstroem
 Tr[quadrupol]     -6351.598814

 energy correction for charged system         0.000000 eV
 dipol+quadrupol energy correction           -0.000578 eV
 added-field ion interaction         -0.819179 eV  (added to PSCEN)


 Free energy of the ion-electron system (eV)
  ---------------------------------------------------
  alpha Z        PSCENC =       907.41371064
  Ewald energy   TEWEN  =    136737.24382446
  -Hartree energ DENC   =   -174572.77748760
  -exchange      EXHF   =      1303.32285308
  -V(xc)+E(xc)   XCENC  =      1462.52040506
  PAW double counting   =     36130.50841122   -39815.31313169
  entropy T*S    EENTRO =        -0.00000000
  eigenvalues    EBANDS =    -10798.25619656
  atomic energy  EATOM  =     48195.69443388
  ---------------------------------------------------
  free energy    TOTEN  =      -449.64317751 eV

  energy without entropy =     -449.64317751  energy(sigma->0) =     -449.64317751
  exchange ACFDT corr.  =        -0.00000000  see jH, gK, PRB 81, 115126


--------------------------------------------------------------------------------------------------------




--------------------------------------- Iteration      1(  11)  ---------------------------------------


    POTLOK:  cpu time      0.1083: real time      0.1083
    SETDIJ:  cpu time      0.6324: real time      0.6324
    TRIAL :  cpu time     70.3873: real time     70.3925
    CORREC:  cpu time     70.9711: real time     70.9774
    CHARGE:  cpu time      0.0568: real time      0.0568
    --------------------------------------------
      LOOP:  cpu time    142.1621: real time    142.1824

 eigenvalue-minimisations  :     0
 total energy-change (2. order) :-0.1058582E+01  (-0.4285166E+00)
 number of electron     457.9999259 magnetization 
 augmentation part      155.3180028 magnetization 

 DIPCOR: dipole corrections for dipol
 direction  3 min pos     1,
 dipolmoment           0.000000      0.000000      0.128104 electrons x Angstroem
 Tr[quadrupol]     -6352.130624

 energy correction for charged system         0.000000 eV
 dipol+quadrupol energy correction           -0.000977 eV
 added-field ion interaction         -1.064578 eV  (added to PSCEN)


 Free energy of the ion-electron system (eV)
  ---------------------------------------------------
  alpha Z        PSCENC =       907.19912744
  Ewald energy   TEWEN  =    136737.24382446
  -Hartree energ DENC   =   -174462.86649405
  -exchange      EXHF   =      1301.81490713
  -V(xc)+E(xc)   XCENC  =      1461.24602183
  PAW double counting   =     36049.87123670   -39722.78069298
  entropy T*S    EENTRO =        -0.00000000
  eigenvalues    EBANDS =    -10918.12412362
  atomic energy  EATOM  =     48195.69443388
  ---------------------------------------------------
  free energy    TOTEN  =      -450.70175920 eV

  energy without entropy =     -450.70175920  energy(sigma->0) =     -450.70175920
  exchange ACFDT corr.  =        -0.00000000  see jH, gK, PRB 81, 115126


--------------------------------------------------------------------------------------------------------




--------------------------------------- Iteration      1(  12)  ---------------------------------------


    POTLOK:  cpu time      0.1094: real time      0.1094
    SETDIJ:  cpu time      0.6326: real time      0.6326
    TRIAL :  cpu time     70.2583: real time     70.2638
    CORREC:  cpu time     70.8744: real time     70.8795
    CHARGE:  cpu time      0.0536: real time      0.0536
    --------------------------------------------
      LOOP:  cpu time    141.9443: real time    141.9552

 eigenvalue-minimisations  :     0
 total energy-change (2. order) :-0.4285113E+00  (-0.1770228E+00)
 number of electron     457.9999262 magnetization 
 augmentation part      155.5161589 magnetization 

 DIPCOR: dipole corrections for dipol
 direction  3 min pos     1,
 dipolmoment           0.000000      0.000000      0.148720 electrons x Angstroem
 Tr[quadrupol]     -6352.792063

 energy correction for charged system         0.000000 eV
 dipol+quadrupol energy correction           -0.001317 eV
 added-field ion interaction         -1.235903 eV  (added to PSCEN)


 Free energy of the ion-electron system (eV)
  ---------------------------------------------------
  alpha Z        PSCENC =       906.89924059
  Ewald energy   TEWEN  =    136737.24382446
  -Hartree energ DENC   =   -174464.40621296
  -exchange      EXHF   =      1301.83265674
  -V(xc)+E(xc)   XCENC  =      1461.63735951
  PAW double counting   =     36029.16260905   -39699.80201711
  entropy T*S    EENTRO =        -0.00000000
  eigenvalues    EBANDS =    -10919.39216467
  atomic energy  EATOM  =     48195.69443388
  ---------------------------------------------------
  free energy    TOTEN  =      -451.13027051 eV

  energy without entropy =     -451.13027051  energy(sigma->0) =     -451.13027051
  exchange ACFDT corr.  =        -0.00000000  see jH, gK, PRB 81, 115126


[...]
    295       9.5357      0.00000
    296       9.5707      0.00000
    297       9.5754      0.00000
    298       9.5758      0.00000
    299       9.6155      0.00000
    300       9.7528      0.00000
    301       9.9615      0.00000
    302       9.9761      0.00000
    303      10.0478      0.00000
    304      10.0509      0.00000
    305      10.1510      0.00000
    306      10.2552      0.00000
    307      10.2973      0.00000
    308      10.3489      0.00000
    309      10.4713      0.00000
    310      10.4921      0.00000
    311      10.5130      0.00000
    312      10.6540      0.00000
    313      10.7380      0.00000
    314      10.7755      0.00000
    315      10.8894      0.00000
    316      10.9147      0.00000
    317      11.3079      0.00000
    318      11.3613      0.00000
    319      11.5509      0.00000
    320      11.6230      0.00000


--------------------------------------------------------------------------------------------------------


 soft charge-density along one line, spin component           1
         0         1         2         3         4         5         6         7         8         9
 total charge-density along one line

 pseudopotential strength for first ion, spin component:           1
  9.986  13.275   0.000   0.018   0.000  -0.000  -0.058  -0.000
 13.275  17.647   0.000   0.023   0.000  -0.000  -0.076  -0.000
  0.000   0.000  -4.321  -0.000   0.000   8.486   0.000  -0.000
  0.018   0.023  -0.000  -4.277  -0.000   0.000   8.374   0.000
  0.000   0.000   0.000  -0.000  -4.321  -0.000   0.000   8.486
 -0.000  -0.000   8.486   0.000  -0.000 -18.793  -0.000   0.000
 -0.058  -0.076   0.000   8.374   0.000  -0.000 -18.518  -0.000
 -0.000  -0.000  -0.000   0.000   8.486   0.000  -0.000 -18.793
 total augmentation occupancy for first ion, spin component:           1
  6.830  -3.078   0.000   2.092   0.000   0.000   0.374  -0.000
 -3.078   1.813   0.000  -1.603   0.000   0.000  -0.222   0.000
  0.000   0.000   0.802   0.000   0.000   0.059   0.000   0.000
  2.092  -1.603   0.000   2.231  -0.000   0.000   0.204   0.000
  0.000   0.000   0.000  -0.000   0.802   0.000   0.000   0.059
  0.000   0.000   0.059   0.000   0.000   0.004   0.000   0.000
  0.374  -0.222   0.000   0.204   0.000   0.000   0.028   0.000
 -0.000   0.000   0.000   0.000   0.059   0.000   0.000   0.004


------------------------ aborting loop because EDIFF is reached ----------------------------------------


    FORLOC:  cpu time      0.0058: real time      0.0058
    FORHF :  cpu time     70.2329: real time     70.2379
    FORNL :  cpu time      0.3285: real time      0.3287
    STRESS:  cpu time      0.9306: real time      0.9310
    FORCOR:  cpu time      0.1030: real time      0.1031
    OFIELD:  cpu time      0.0001: real time      0.0003

  DFT-D2 method for vdW energy calculation
  -------------------------------------------------------------------

  Parameters of vdW forcefield:
         C6(Jnm^6/mol)     R0(A)
   -----------------------------
   C        1.750          1.452
   O        0.700          1.342
   Mg       0.630          1.243
   O        0.700          1.342

  vdW correction parametrized for the method       0'>

  IVDW =   1
  VDW_RADIUS =    50.000 A
  VDW_S6 =     1.050
  VDW_SR =     1.000
  VDW_D =    20.000
  LVDW_EWALD = F

  Number of pair interactions contributing to vdW energy:  768294
  Edisp (eV):   -5.16163
    FORVDW:  cpu time      0.1857: real time      0.1857

  FORCE on cell =-STRESS in cart. coord.  units (eV):
  Direction    XX          YY          ZZ          XY          YZ          ZX
  --------------------------------------------------------------------------------------
  Alpha Z   907.96410   907.96410   907.96410
  Ewald  157240.15619157240.15619************     0.00000     0.00000    -0.00000
  Hartree167702.43913167702.43913************    -0.00000    -0.00000    -0.00000
  E(xc)   -2036.44306 -2036.44306 -2038.49050    -0.00000     0.00000     0.00000
  Local  ************************334509.70872    -0.00000    -0.00000    -0.00000
  n-local -1185.73098 -1186.20288 -1218.12403    -0.00000    -0.00000     0.00000
  augment   903.24861   903.24861   892.32518     0.00000    -0.00000     0.00000
  Kinetic  7522.25794  7524.08886  7544.03273    -0.00000     0.00000    -0.00000
  Fock    -2007.79732 -2007.88081 -2007.00884     0.00000    -0.00000     0.00000
  vdW        -7.50994    -7.50994    -6.19460     0.00000     0.00000     0.00000
  -------------------------------------------------------------------------------------
  Total     -38.89436   -38.89436   -12.47103     0.00000     0.00000     0.00000
  in kB     -41.00200   -41.00200   -13.14682     0.00000     0.00000     0.00000
  external pressure =      -31.72 kB  Pullay stress =        0.00 kB


 VOLUME and BASIS-vectors are now :
 -----------------------------------------------------------------------------
  energy-cutoff  :      600.00
  volume of cell :     1519.82
      direct lattice vectors                 reciprocal lattice vectors
     8.440984654  0.000000000  0.000000000     0.118469591  0.000000000  0.000000000
     0.000000000  8.440984654  0.000000000     0.000000000  0.118469591  0.000000000
     0.000000000  0.000000000 21.330738491     0.000000000  0.000000000  0.046880702

  length of vectors
     8.440984654  8.440984654 21.330738491     0.118469591  0.118469591  0.046880702


 FORCES acting on ions:
    Electron-Ion                     Ewald-Force                    Non-Local-Force
 -----------------------------------------------------------------------------------------------
   0.934E-13 0.532E-12 -.798E+03   0.711E-14 0.155E-14 0.771E+03   0.000E+00 0.662E-23 0.269E+02
   0.329E-12 0.121E-12 -.139E+04   -.400E-14 0.244E-14 0.145E+04   -.310E-23 0.000E+00 -.549E+02
   -.417E-13 -.113E+00 0.208E+04   0.560E-13 0.112E+00 -.207E+04   0.000E+00 0.859E-04 -.639E+01
   0.113E+00 -.135E-13 0.208E+04   -.112E+00 0.671E-13 -.207E+04   -.859E-04 -.993E-23 -.639E+01
   -.449E-13 -.121E-12 0.712E+03   -.150E-10 0.150E-10 -.712E+03   0.000E+00 -.165E-23 0.440E+00
   0.360E+00 -.360E+00 0.713E+03   -.356E+00 0.356E+00 -.713E+03   -.238E-02 0.238E-02 0.463E+00
   -.517E-13 -.252E+01 -.644E+03   0.157E-11 0.250E+01 0.644E+03   -.265E-22 0.192E-01 -.856E-01
   0.252E+01 -.808E-13 -.644E+03   -.250E+01 -.151E-11 0.644E+03   -.192E-01 0.106E-21 -.856E-01
   -.273E-13 -.741E-12 -.200E+04   0.444E-12 -.416E-12 0.200E+04   0.265E-22 0.000E+00 0.531E+01
   0.159E+02 -.159E+02 -.198E+04   -.160E+02 0.160E+02 0.198E+04   0.755E-01 -.755E-01 0.540E+01
   -.573E-13 0.113E+00 0.208E+04   -.277E-12 -.112E+00 -.207E+04   0.000E+00 -.859E-04 -.639E+01
   0.102E+00 0.673E-12 0.208E+04   -.100E+00 0.131E-10 -.207E+04   -.125E-02 0.000E+00 -.639E+01
   -.513E-13 0.943E-12 0.713E+03   -.165E-10 0.000E+00 -.713E+03   0.000E+00 0.000E+00 0.401E+00
   0.360E+00 0.360E+00 0.713E+03   -.356E+00 -.356E+00 -.713E+03   -.238E-02 -.238E-02 0.463E+00
   -.667E-13 0.252E+01 -.644E+03   0.304E-11 -.250E+01 0.644E+03   0.132E-21 -.192E-01 -.856E-01
   0.334E+01 0.143E-11 -.638E+03   -.327E+01 0.178E-14 0.638E+03   -.743E-01 0.000E+00 -.215E+00
   -.448E-13 0.140E-11 -.199E+04   -.355E-13 -.995E-13 0.198E+04   0.000E+00 0.000E+00 0.532E+01
   0.159E+02 0.159E+02 -.198E+04   -.160E+02 -.160E+02 0.198E+04   0.755E-01 0.755E-01 0.540E+01
   0.907E-12 -.102E+00 0.208E+04   -.129E-10 0.100E+00 -.207E+04   -.265E-22 0.125E-02 -.639E+01
   -.113E+00 0.000E+00 0.208E+04   0.112E+00 0.471E-13 -.207E+04   0.859E-04 -.331E-23 -.639E+01
   0.846E-12 0.189E-12 0.713E+03   0.145E-11 0.150E-10 -.713E+03   0.132E-22 0.000E+00 0.401E+00
   -.360E+00 -.360E+00 0.713E+03   0.356E+00 0.356E+00 -.713E+03   0.238E-02 0.238E-02 0.463E+00
   0.808E-12 -.334E+01 -.638E+03   -.141E-11 0.327E+01 0.638E+03   0.397E-22 0.743E-01 -.215E+00
   -.252E+01 -.108E-12 -.644E+03   0.250E+01 -.156E-11 0.644E+03   0.192E-01 -.132E-21 -.856E-01
   0.925E-12 0.121E-12 -.199E+04   0.782E-13 -.355E-14 0.198E+04   0.132E-22 0.000E+00 0.532E+01
   -.159E+02 -.159E+02 -.198E+04   0.160E+02 0.160E+02 0.198E+04   -.755E-01 -.755E-01 0.540E+01
   0.916E-12 0.102E+00 0.208E+04   -.131E-10 -.100E+00 -.207E+04   0.529E-22 -.125E-02 -.639E+01
   -.102E+00 0.256E-12 0.208E+04   0.100E+00 0.131E-10 -.207E+04   0.125E-02 -.926E-22 -.639E+01
   0.904E-12 0.204E-11 0.713E+03   -.782E-13 0.355E-14 -.713E+03   0.132E-22 0.199E-22 0.535E+00
   -.360E+00 0.360E+00 0.713E+03   0.356E+00 -.356E+00 -.713E+03   0.238E-02 -.238E-02 0.463E+00
   0.818E-12 0.334E+01 -.638E+03   -.284E-13 -.327E+01 0.638E+03   0.000E+00 -.743E-01 -.215E+00
   -.334E+01 -.144E-11 -.638E+03   0.327E+01 0.000E+00 0.638E+03   0.743E-01 0.000E+00 -.215E+00
   0.929E-12 0.747E-12 -.193E+04   -.426E-13 -.391E-13 0.192E+04   0.000E+00 0.165E-23 0.438E+01
   -.159E+02 0.159E+02 -.198E+04   0.160E+02 -.160E+02 0.198E+04   -.755E-01 0.755E-01 0.540E+01
   -.580E-13 -.340E+00 0.534E+03   0.409E-13 0.334E+00 -.534E+03   0.000E+00 0.752E-02 -.929E-01
   0.340E+00 0.229E-12 0.534E+03   -.334E+00 0.391E-13 -.534E+03   -.752E-02 0.265E-22 -.929E-01
   -.383E-13 -.104E-11 0.156E+04   0.853E-11 -.844E-11 -.156E+04   -.106E-21 -.159E-21 0.313E+01
   0.800E-01 -.800E-01 0.156E+04   -.791E-01 0.791E-01 -.156E+04   -.988E-03 0.988E-03 0.313E+01
   -.457E-13 -.669E+01 -.152E+04   -.871E-12 0.663E+01 0.152E+04   0.199E-22 0.536E-01 -.458E+01
   0.669E+01 -.175E-12 -.152E+04   -.663E+01 0.881E-12 0.152E+04   -.536E-01 0.000E+00 -.458E+01
   -.622E-13 -.364E-12 -.479E+03   -.853E-13 0.639E-13 0.479E+03   0.000E+00 0.662E-23 0.258E+00
   0.217E+01 -.217E+01 -.474E+03   -.216E+01 0.216E+01 0.474E+03   -.870E-02 0.870E-02 0.317E+00
   -.614E-13 0.340E+00 0.534E+03   0.142E-13 -.334E+00 -.534E+03   0.000E+00 -.752E-02 -.929E-01
   0.274E+00 0.707E-12 0.534E+03   -.303E+00 -.764E-11 -.534E+03   0.351E-01 -.331E-23 -.111E+00
   -.438E-13 -.485E-12 0.156E+04   0.845E-11 -.796E-12 -.156E+04   0.000E+00 0.331E-22 0.313E+01
   0.800E-01 0.800E-01 0.156E+04   -.791E-01 -.791E-01 -.156E+04   -.988E-03 -.988E-03 0.313E+01
   -.503E-13 0.669E+01 -.152E+04   -.774E-12 -.663E+01 0.152E+04   -.529E-22 -.536E-01 -.458E+01
   0.198E+02 0.121E-11 -.149E+04   -.195E+02 0.810E-11 0.150E+04   -.184E+00 0.000E+00 -.452E+01
   -.627E-13 0.377E-12 -.474E+03   -.741E-11 0.711E-14 0.474E+03   0.000E+00 0.000E+00 0.276E+00
   0.217E+01 0.217E+01 -.474E+03   -.216E+01 -.216E+01 0.474E+03   -.870E-02 -.870E-02 0.317E+00
   0.347E-12 -.274E+00 0.534E+03   0.764E-11 0.303E+00 -.534E+03   0.000E+00 -.351E-01 -.111E+00
   -.340E+00 0.242E-12 0.534E+03   0.334E+00 0.142E-13 -.534E+03   0.752E-02 0.116E-22 -.929E-01
   0.387E-12 -.687E-12 0.156E+04   0.845E-12 -.846E-11 -.156E+04   0.000E+00 -.265E-22 0.313E+01
   -.800E-01 -.800E-01 0.156E+04   0.791E-01 0.791E-01 -.156E+04   0.988E-03 0.988E-03 0.313E+01
   0.381E-12 -.198E+02 -.149E+04   -.816E-11 0.195E+02 0.150E+04   0.000E+00 0.184E+00 -.452E+01
   -.669E+01 -.202E-12 -.152E+04   0.663E+01 0.924E-12 0.152E+04   0.536E-01 0.106E-21 -.458E+01
   0.312E-12 -.175E-12 -.474E+03   -.711E-14 0.738E-11 0.474E+03   0.000E+00 0.000E+00 0.276E+00
   -.217E+01 -.217E+01 -.474E+03   0.216E+01 0.216E+01 0.474E+03   0.870E-02 0.870E-02 0.317E+00
   0.350E-12 0.274E+00 0.534E+03   0.763E-11 -.303E+00 -.534E+03   0.000E+00 0.351E-01 -.111E+00
   -.274E+00 0.164E-11 0.534E+03   0.303E+00 -.769E-11 -.534E+03   -.351E-01 0.000E+00 -.111E+00
   0.377E-12 0.606E-12 0.156E+04   0.824E-12 -.838E-12 -.156E+04   0.000E+00 0.000E+00 0.313E+01
   -.800E-01 0.800E-01 0.156E+04   0.791E-01 -.791E-01 -.156E+04   0.988E-03 -.988E-03 0.313E+01
   0.386E-12 0.198E+02 -.149E+04   -.820E-11 -.195E+02 0.150E+04   -.199E-22 -.184E+00 -.452E+01
   -.198E+02 -.137E-11 -.149E+04   0.195E+02 0.819E-11 0.150E+04   0.184E+00 0.000E+00 -.452E+01
   0.305E-12 0.128E-11 -.476E+03   -.497E-13 0.426E-13 0.476E+03   0.000E+00 -.165E-23 -.152E+00
   -.217E+01 0.217E+01 -.474E+03   0.216E+01 -.216E+01 0.474E+03   0.870E-02 -.870E-02 0.317E+00
 -----------------------------------------------------------------------------------------------
   0.261E-10 0.184E-10 0.528E+02   0.204E-12 -.258E-13 0.909E-12   0.416E-16 0.278E-16 -.450E+02


 POSITION                                       TOTAL-FORCE (eV/Angst)
 -----------------------------------------------------------------------------------
      4.22049      4.22049     16.49814        -0.000000      0.000000      1.874349
      4.22049      4.22049     17.64496        -0.000000      0.000000     -1.947341
      0.00000      6.33074      7.50000        -0.000000     -0.000032      0.465815
      2.11025      0.00000      7.50000         0.000032      0.000000      0.465815
      0.00000      0.00000      9.61025        -0.000000      0.000000      0.043086
      2.11025      6.33074      9.61025         0.001610     -0.001610      0.046178
      0.00000      6.33023     11.73368        -0.000000     -0.001570      0.013492
      2.11076      0.00000     11.73368         0.001570      0.000000      0.013492
      0.00000      0.00000     13.83822        -0.000000      0.000000     -0.082956
      2.10905      6.33193     13.83447        -0.008302      0.008302     -0.096789
      0.00000      2.11025      7.50000        -0.000000      0.000032      0.465815
      2.11025      4.22049      7.50000         0.000514      0.000000      0.465899
      0.00000      4.22049      9.61025        -0.000000      0.000000      0.054092
      2.11025      2.11025      9.61025         0.001610      0.001610      0.046178
      0.00000      2.11076     11.73368        -0.000000      0.001570      0.013492
      2.11344      4.22049     11.73659        -0.006540      0.000000      0.026321
      0.00000      4.22049     13.83544        -0.000000      0.000000     -0.090559
      2.10905      2.10905     13.83447        -0.008302     -0.008302     -0.096789
      4.22049      6.33074      7.50000        -0.000000     -0.000514      0.465899
      6.33074      0.00000      7.50000        -0.000032      0.000000      0.465815
      4.22049      0.00000      9.61025        -0.000000      0.000000      0.054092
      6.33074      6.33074      9.61025        -0.001610     -0.001610      0.046178
      4.22049      6.32754     11.73659        -0.000000      0.006540      0.026321
      6.33023      0.00000     11.73368        -0.001570      0.000000      0.013492
      4.22049      0.00000     13.83544        -0.000000      0.000000     -0.090559
      6.33193      6.33193     13.83447         0.008302      0.008302     -0.096789
      4.22049      2.11025      7.50000        -0.000000      0.000514      0.465899
      6.33074      4.22049      7.50000        -0.000514      0.000000      0.465899
      4.22049      4.22049      9.61025        -0.000000      0.000000      0.051093
      6.33074      2.11025      9.61025        -0.001610      0.001610      0.046178
      4.22049      2.11344     11.73659        -0.000000     -0.006540      0.026321
      6.32754      4.22049     11.73659         0.006540      0.000000      0.026321
      4.22049      4.22049     13.87814        -0.000000      0.000000      0.009338
      6.33193      2.10905     13.83447         0.008302     -0.008302     -0.096789
      0.00000      6.33074      9.61025        -0.000000      0.002652      0.057956
      2.11025      0.00000      9.61025        -0.002652      0.000000      0.057956
      0.00000      0.00000      7.50000        -0.000000      0.000000     -0.434455
      2.11025      6.33074      7.50000        -0.000296      0.000296     -0.434430
      0.00000      6.33258     13.88587        -0.000000      0.000379     -0.109527
      2.10840      0.00000     13.88587        -0.000379      0.000000     -0.109527
      0.00000      0.00000     11.72785        -0.000000      0.000000      0.033772
      2.10979      6.33120     11.72890         0.001647     -0.001647      0.026953
      0.00000      2.11025      9.61025        -0.000000     -0.002652      0.057956
      2.11025      4.22049      9.61025         0.011045      0.000000      0.066409
      0.00000      4.22049      7.50000        -0.000000      0.000000     -0.434752
      2.11025      2.11025      7.50000        -0.000296     -0.000296     -0.434430
      0.00000      2.10840     13.88587        -0.000000     -0.000379     -0.109527
      2.10031      4.22049     13.88381         0.032039      0.000000     -0.089101
      0.00000      4.22049     11.72684        -0.000000      0.000000      0.030227
      2.10979      2.10979     11.72890         0.001647      0.001647      0.026953
      4.22049      6.33074      9.61025        -0.000000     -0.011045      0.066409
      6.33074      0.00000      9.61025         0.002652      0.000000      0.057956
      4.22049      0.00000      7.50000        -0.000000      0.000000     -0.434752
      6.33074      6.33074      7.50000         0.000296      0.000296     -0.434430
      4.22049      6.34068     13.88381        -0.000000     -0.032039     -0.089101
      6.33258      0.00000     13.88587         0.000379      0.000000     -0.109527
      4.22049      0.00000     11.72684        -0.000000      0.000000      0.030227
      6.33120      6.33120     11.72890        -0.001647     -0.001647      0.026953
      4.22049      2.11025      9.61025        -0.000000      0.011045      0.066409
      6.33074      4.22049      9.61025        -0.011045      0.000000      0.066409
      4.22049      4.22049      7.50000        -0.000000      0.000000     -0.435319
      6.33074      2.11025      7.50000         0.000296     -0.000296     -0.434430
      4.22049      2.10031     13.88381        -0.000000      0.032039     -0.089101
      6.34068      4.22049     13.88381        -0.032039      0.000000     -0.089101
      4.22049      4.22049     11.73684        -0.000000      0.000000      0.013711
      6.33120      2.10979     11.72890        -0.001647      0.001647      0.026953
 -----------------------------------------------------------------------------------
    total drift:                                0.000000      0.000000     -0.011176


--------------------------------------------------------------------------------------------------------



  FREE ENERGIE OF THE ION-ELECTRON SYSTEM (eV)
  ---------------------------------------------------
  free  energy   TOTEN  =      -456.64223143 eV

  energy  without entropy=     -456.64223143  energy(sigma->0) =     -456.64223143



--------------------------------------------------------------------------------------------------------


    POTLOK:  cpu time      0.7665: real time      0.7666


--------------------------------------------------------------------------------------------------------


     LOOP+:  cpu time   6070.0814: real time   6071.8427
    4ORBIT:  cpu time      0.0000: real time      0.0000

 total amount of memory used by VASP MPI-rank0   185308. kBytes
=======================================================================

   base      :      30000. kBytes
   nonl-proj :      14893. kBytes
   fftplans  :       3932. kBytes
   grid      :       3944. kBytes
   one-center:         73. kBytes
   HF        :        101. kBytes
   nonlr-proj:      15028. kBytes
   wavefun   :       4746. kBytes
   fock_wrk  :     112591. kBytes

  
  
 General timing and accounting informations for this job:
 ========================================================
  
                  Total CPU time used (sec):     6100.498
                            User time (sec):     6085.875
                          System time (sec):       14.623
                         Elapsed time (sec):     6112.734
  
                   Maximum memory used (kb):      413932.
                   Average memory used (kb):          N/A
  
                          Minor page faults:       411409
                          Major page faults:           51
                 Voluntary context switches:        16212
