 vasp.6.3.0 20Jan22 (build Apr  1 2022 16:44:48) complex                         
 executed on        HPECrayEX_GCC date 2023.05.17  21:50:59
 running  512 mpi-ranks, with    1 threads/rank
 distrk:  each k-point on  512 cores,    1 groups
 distr:  one band on NCORE=   8 cores,   64 groups


--------------------------------------------------------------------------------------------------------


 INCAR:
   SYSTEM = MgO-rocksalt
   ISMEAR = 0
   SIGMA = 0.05
   EDIFF = 1E-6
   ALGO = ALL
   ISTART = 0
   IBRION = -1
   NSW = 0
   ISYM = 2
   ISIF = 2
   EDIFFG = -0.01
   DIPOL = 0.5 0.5 0.5
   IDIPOL = 3
   LDIPOL = .TRUE.
   LHFCALC = .TRUE.
   GGA = PE
   IVDW = 13
   VDW_S8 = 1.2007
   VDW_A1 = 0.4009
   VDW_A2 = 5.0293
   ENCUT = 600
   PREC = Normal
   LASPH = .TRUE.
   LREAL = .FALSE.
   ISPIN = 1
   NELM = 200
   NELMIN = 8
   NCORE = 8
   KPAR = 1
   LWAVE = .FALSE.
   LCHARG = .FALSE.

 POTCAR:    PAW_PBE C 08Apr2002                   
 POTCAR:    PAW_PBE O 08Apr2002                   
 POTCAR:    PAW_PBE Mg_pv 13Apr2007               
 POTCAR:    PAW_PBE O 08Apr2002                   
 -----------------------------------------------------------------------------
|                                                                             |
|           W    W    AA    RRRRR   N    N  II  N    N   GGGG   !!!           |
|           W    W   A  A   R    R  NN   N  II  NN   N  G    G  !!!           |
|           W    W  A    A  R    R  N N  N  II  N N  N  G       !!!           |
|           W WW W  AAAAAA  RRRRR   N  N N  II  N  N N  G  GGG   !            |
|           WW  WW  A    A  R   R   N   NN  II  N   NN  G    G                |
|           W    W  A    A  R    R  N    N  II  N    N   GGGG   !!!           |
|                                                                             |
|     You have selected ISYM=2 for a HF type calculation. This will           |
|     symmetrize the charge density but not the exchange potential. I         |
|     suggest to use ISYM=3 instead. This uses symmetry to obtain the         |
|     orbitals at all k-points in the Brillouin zone, but does not apply      |
|     symmetry to the Hartree potential directly. The resultant charge        |
|     might have lower symmetry than the crystal but, at least, Hartree       |
|     and exchange are fully compatible.                                      |
|                                                                             |
 -----------------------------------------------------------------------------

 POTCAR:    PAW_PBE C 08Apr2002                   
   SHA256 =  253f7b50bb8d59471dbedb8285d89021f4a42ed1a2c5d38a03a736e69125dd95 C/POTCAR              
   COPYR  = (c) Copyright 08Apr2002 Georg Kresse                                                    
   COPYR  = This file is part of the software VASP. Any use, copying, and all other rights are regul
   COPYR  = If you do not have a valid VASP license, you may not use, copy or distribute this file. 
   VRHFIN =C: s2p2                                                                                  
   LEXCH  = PE                                                                                      
   EATOM  =   147.1560 eV,   10.8157 Ry                                                             
                                                                                                    
   TITEL  = PAW_PBE C 08Apr2002                                                                     
   LULTRA =        F    use ultrasoft PP ?                                                          
   IUNSCR =        1    unscreen: 0-lin 1-nonlin 2-no                                               
   RPACOR =    1.200    partial core radius                                                         
   POMASS =   12.011; ZVAL   =    4.000    mass and valenz                                          
   RCORE  =    1.500    outmost cutoff radius                                                       
   RWIGS  =    1.630; RWIGS  =    0.863    wigner-seitz radius (au A)                               
   ENMAX  =  400.000; ENMIN  =  300.000 eV                                                          
   ICORE  =        2    local potential                                                             
   LCOR   =        T    correct aug charges                                                         
   LPAW   =        T    paw PP                                                                      
   EAUG   =  644.873                                                                                
   DEXC   =    0.000                                                                                
   RMAX   =    1.529    core radius for proj-oper                                                   
   RAUG   =    1.300    factor for augmentation sphere                                              
   RDEP   =    1.501    radius for radial grids                                                     
   RDEPT  =    1.300    core radius for aug-charge                                                  
                                                                                                    
   Atomic configuration                                                                             
    4 entries                                                                                       
     n  l   j            E        occ.                                                              
     1  0  0.50      -273.3789   2.0000                                                             
     2  0  0.50       -13.7508   2.0000                                                             
     2  1  0.50        -5.2854   2.0000                                                             
     3  2  1.50        -5.4423   0.0000                                                             
   Description                                                                                      
     l       E           TYP  RCUT    TYP  RCUT                                                     
     0    -13.7508458     23  1.200                                                                 
     0     -8.2022199     23  1.200                                                                 
     1     -5.2854383     23  1.500                                                                 
     1     34.0145650     23  1.500                                                                 
     2     -5.4423304      7  1.500                                                                 
  local pseudopotential read in
  partial core-charges read in
  partial kinetic energy density read in
  atomic valenz-charges read in
  non local Contribution for L=           0  read in
    real space projection operators read in
  non local Contribution for L=           0  read in
    real space projection operators read in
  non local Contribution for L=           1  read in
    real space projection operators read in
  non local Contribution for L=           1  read in
    real space projection operators read in
    PAW grid and wavefunctions read in

   number of l-projection  operators is LMAX  =           4
   number of lm-projection operators is LMMAX =           8

 POTCAR:    PAW_PBE O 08Apr2002                   
   SHA256 =  818f92134a0a090dccd8ba1447fa70422a3b330e708bb4f08108d8ae51209ddf O/POTCAR              
   COPYR  = (c) Copyright 08Apr2002 Georg Kresse                                                    
   COPYR  = This file is part of the software VASP. Any use, copying, and all other rights are regul
   COPYR  = If you do not have a valid VASP license, you may not use, copy or distribute this file. 
   VRHFIN =O: s2p4                                                                                  
   LEXCH  = PE                                                                                      
   EATOM  =   432.3788 eV,   31.7789 Ry                                                             
                                                                                                    
   TITEL  = PAW_PBE O 08Apr2002                                                                     
   LULTRA =        F    use ultrasoft PP ?                                                          
   IUNSCR =        1    unscreen: 0-lin 1-nonlin 2-no                                               
   RPACOR =    1.200    partial core radius                                                         
   POMASS =   16.000; ZVAL   =    6.000    mass and valenz                                          
   RCORE  =    1.520    outmost cutoff radius                                                       
   RWIGS  =    1.550; RWIGS  =    0.820    wigner-seitz radius (au A)                               
   ENMAX  =  400.000; ENMIN  =  300.000 eV                                                          
   ICORE  =        2    local potential                                                             
   LCOR   =        T    correct aug charges                                                         
   LPAW   =        T    paw PP                                                                      
   EAUG   =  605.392                                                                                
   DEXC   =    0.000                                                                                
   RMAX   =    1.553    core radius for proj-oper                                                   
   RAUG   =    1.300    factor for augmentation sphere                                              
   RDEP   =    1.550    radius for radial grids                                                     
   RDEPT  =    1.329    core radius for aug-charge                                                  
                                                                                                    
   Atomic configuration                                                                             
    4 entries                                                                                       
     n  l   j            E        occ.                                                              
     1  0  0.50      -514.6923   2.0000                                                             
     2  0  0.50       -23.9615   2.0000                                                             
     2  1  0.50        -9.0305   4.0000                                                             
     3  2  1.50        -9.5241   0.0000                                                             
   Description                                                                                      
     l       E           TYP  RCUT    TYP  RCUT                                                     
     0    -23.9615318     23  1.200                                                                 
     0     -9.5240782     23  1.200                                                                 
     1     -9.0304911     23  1.520                                                                 
     1      8.1634956     23  1.520                                                                 
     2     -9.5240782      7  1.500                                                                 
  local pseudopotential read in
  partial core-charges read in
  partial kinetic energy density read in
  kinetic energy density of atom read in
  atomic valenz-charges read in
  non local Contribution for L=           0  read in
    real space projection operators read in
  non local Contribution for L=           0  read in
    real space projection operators read in
  non local Contribution for L=           1  read in
    real space projection operators read in
  non local Contribution for L=           1  read in
    real space projection operators read in
    PAW grid and wavefunctions read in

   number of l-projection  operators is LMAX  =           4
   number of lm-projection operators is LMMAX =           8

 POTCAR:    PAW_PBE Mg_pv 13Apr2007               
   SHA256 =  f474ac0dd33840b9ae76c01d57fea79fdf77cdfbb07d5ade72c65f83c709b62b Mg_pv/POTCAR          
   COPYR  = (c) Copyright 13Apr2007 Georg Kresse                                                    
   COPYR  = This file is part of the software VASP. Any use, copying, and all other rights are regul
   COPYR  = If you do not have a valid VASP license, you may not use, copy or distribute this file. 
   VRHFIN =Mg: p6s2                                                                                 
   LEXCH  = PE                                                                                      
   EATOM  =  1056.7344 eV,   77.6678 Ry                                                             
                                                                                                    
   TITEL  = PAW_PBE Mg_pv 13Apr2007                                                                 
   LULTRA =        F    use ultrasoft PP ?                                                          
   IUNSCR =        1    unscreen: 0-lin 1-nonlin 2-no                                               
   RPACOR =    1.500    partial core radius                                                         
   POMASS =   24.305; ZVAL   =    8.000    mass and valenz                                          
   RCORE  =    2.000    outmost cutoff radius                                                       
   RWIGS  =    2.000; RWIGS  =    1.058    wigner-seitz radius (au A)                               
   ENMAX  =  403.929; ENMIN  =  302.947 eV                                                          
   RCLOC  =    1.506    cutoff for local pot                                                        
   LCOR   =        T    correct aug charges                                                         
   LPAW   =        T    paw PP                                                                      
   EAUG   =  758.780                                                                                
   DEXC   =    0.000                                                                                
   RMAX   =    2.045    core radius for proj-oper                                                   
   RAUG   =    1.300    factor for augmentation sphere                                              
   RDEP   =    2.025    radius for radial grids                                                     
   RDEPT  =    1.557    core radius for aug-charge                                                  
                                                                                                    
   Atomic configuration                                                                             
    5 entries                                                                                       
     n  l   j            E        occ.                                                              
     1  0  0.50     -1259.6230   2.0000                                                             
     2  0  0.50       -79.8442   2.0000                                                             
     2  1  1.50       -46.6121   6.0000                                                             
     3  0  0.50        -4.7055   2.0000                                                             
     3  2  1.50        -1.3606   0.0000                                                             
   Description                                                                                      
     l       E           TYP  RCUT    TYP  RCUT                                                     
     1    -46.6121073     23  1.600                                                                 
     1      2.7211652     23  1.600                                                                 
     0     -4.7054661     23  2.000                                                                 
     0     61.2262170     23  2.000                                                                 
     2     -1.3605826     23  2.000                                                                 
  local pseudopotential read in
  partial core-charges read in
  partial kinetic energy density read in
  atomic valenz-charges read in
  non local Contribution for L=           1  read in
    real space projection operators read in
  non local Contribution for L=           1  read in
    real space projection operators read in
  non local Contribution for L=           0  read in
    real space projection operators read in
  non local Contribution for L=           0  read in
    real space projection operators read in
  non local Contribution for L=           2  read in
    real space projection operators read in
    PAW grid and wavefunctions read in

   number of l-projection  operators is LMAX  =           5
   number of lm-projection operators is LMMAX =          13

 POTCAR:    PAW_PBE O 08Apr2002                   
   SHA256 =  818f92134a0a090dccd8ba1447fa70422a3b330e708bb4f08108d8ae51209ddf O/POTCAR              
   COPYR  = (c) Copyright 08Apr2002 Georg Kresse                                                    
   COPYR  = This file is part of the software VASP. Any use, copying, and all other rights are regul
   COPYR  = If you do not have a valid VASP license, you may not use, copy or distribute this file. 
   VRHFIN =O: s2p4                                                                                  
   LEXCH  = PE                                                                                      
   EATOM  =   432.3788 eV,   31.7789 Ry                                                             
                                                                                                    
   TITEL  = PAW_PBE O 08Apr2002                                                                     
   LULTRA =        F    use ultrasoft PP ?                                                          
   IUNSCR =        1    unscreen: 0-lin 1-nonlin 2-no                                               
   RPACOR =    1.200    partial core radius                                                         
   POMASS =   16.000; ZVAL   =    6.000    mass and valenz                                          
   RCORE  =    1.520    outmost cutoff radius                                                       
   RWIGS  =    1.550; RWIGS  =    0.820    wigner-seitz radius (au A)                               
   ENMAX  =  400.000; ENMIN  =  300.000 eV                                                          
   ICORE  =        2    local potential                                                             
   LCOR   =        T    correct aug charges                                                         
   LPAW   =        T    paw PP                                                                      
   EAUG   =  605.392                                                                                
   DEXC   =    0.000                                                                                
   RMAX   =    1.553    core radius for proj-oper                                                   
   RAUG   =    1.300    factor for augmentation sphere                                              
   RDEP   =    1.550    radius for radial grids                                                     
   RDEPT  =    1.329    core radius for aug-charge                                                  
                                                                                                    
   Atomic configuration                                                                             
    4 entries                                                                                       
     n  l   j            E        occ.                                                              
     1  0  0.50      -514.6923   2.0000                                                             
     2  0  0.50       -23.9615   2.0000                                                             
     2  1  0.50        -9.0305   4.0000                                                             
     3  2  1.50        -9.5241   0.0000                                                             
   Description                                                                                      
     l       E           TYP  RCUT    TYP  RCUT                                                     
     0    -23.9615318     23  1.200                                                                 
     0     -9.5240782     23  1.200                                                                 
     1     -9.0304911     23  1.520                                                                 
     1      8.1634956     23  1.520                                                                 
     2     -9.5240782      7  1.500                                                                 
  local pseudopotential read in
  partial core-charges read in
  partial kinetic energy density read in
  kinetic energy density of atom read in
  atomic valenz-charges read in
  non local Contribution for L=           0  read in
    real space projection operators read in
  non local Contribution for L=           0  read in
    real space projection operators read in
  non local Contribution for L=           1  read in
    real space projection operators read in
  non local Contribution for L=           1  read in
    real space projection operators read in
    PAW grid and wavefunctions read in

   number of l-projection  operators is LMAX  =           4
   number of lm-projection operators is LMMAX =           8

 -----------------------------------------------------------------------------
|                                                                             |
|               ----> ADVICE to this user running VASP <----                  |
|                                                                             |
|     You have a (more or less) 'large supercell' and for larger cells it     |
|     might be more efficient to use real-space projection operators.         |
|     Therefore, try LREAL= Auto in the INCAR file.                           |
|     Mind: For very accurate calculation, you might also keep the            |
|     reciprocal projection scheme (i.e. LREAL=.FALSE.).                      |
|                                                                             |
 -----------------------------------------------------------------------------

  PAW_PBE C 08Apr2002                   :
 energy of atom  1       EATOM= -147.1560
 kinetic energy error for atom=    0.0057 (will be added to EATOM!!)
  PAW_PBE O 08Apr2002                   :
 energy of atom  2       EATOM= -432.3788
 kinetic energy error for atom=    0.0168 (will be added to EATOM!!)
  PAW_PBE Mg_pv 13Apr2007               :
 energy of atom  3       EATOM=-1056.7344
 kinetic energy error for atom=    0.0221 (will be added to EATOM!!)
  PAW_PBE O 08Apr2002                   :
 energy of atom  4       EATOM= -432.3788
 kinetic energy error for atom=    0.0168 (will be added to EATOM!!)


 POSCAR:  C  O Mg  O
  positions in direct lattice
  No initial velocities read in
 -----------------------------------------------------------------------------
|                                                                             |
|           W    W    AA    RRRRR   N    N  II  N    N   GGGG   !!!           |
|           W    W   A  A   R    R  NN   N  II  NN   N  G    G  !!!           |
|           W    W  A    A  R    R  N N  N  II  N N  N  G       !!!           |
|           W WW W  AAAAAA  RRRRR   N  N N  II  N  N N  G  GGG   !            |
|           WW  WW  A    A  R   R   N   NN  II  N   NN  G    G                |
|           W    W  A    A  R    R  N    N  II  N    N   GGGG   !!!           |
|                                                                             |
|     Specifying the vdW parameters                                           |
|     VDW_S8 = 1.201                                                          |
|     VDW_A1 = 0.401                                                          |
|     VDW_A2 = 5.029                                                          |
|     in the INCAR file will overwrite the defaults for pbe0. Please make     |
|     sure that is what you intended.                                         |
|                                                                             |
 -----------------------------------------------------------------------------

 exchange correlation table for  LEXCH =        8
   RHO(1)=    0.500       N(1)  =     2000
   RHO(2)=  100.500       N(2)  =     4000



--------------------------------------------------------------------------------------------------------


 ion  position               nearest neighbor table
   1  0.500  0.500  0.765-   2 1.15
   2  0.500  0.500  0.818-   1 1.15
   3  0.000  0.750  0.352-  35 2.11  37 2.11  38 2.11  45 2.11  54 2.11
   4  0.250  0.000  0.352-  36 2.11  37 2.11  38 2.11  46 2.11  53 2.11
   5  0.000  0.000  0.451-  37 2.11  36 2.11  35 2.11  43 2.11  52 2.11  41 2.12
   6  0.250  0.750  0.451-  38 2.11  36 2.11  35 2.11  44 2.11  51 2.11  42 2.12
   7  0.000  0.750  0.550-  49 2.11  42 2.11  58 2.11  41 2.11  35 2.12  39 2.15
   8  0.250  0.000  0.550-  57 2.11  50 2.11  42 2.11  41 2.11  36 2.12  40 2.15
   9  0.000  0.000  0.649-  39 2.11  40 2.11  47 2.11  56 2.11  41 2.11
  10  0.250  0.750  0.649-  42 2.11  40 2.11  39 2.11  48 2.11  55 2.11
  11  0.000  0.250  0.352-  43 2.11  37 2.11  45 2.11  46 2.11  62 2.11
  12  0.250  0.500  0.352-  44 2.11  38 2.11  45 2.11  46 2.11  61 2.11
  13  0.000  0.500  0.451-  45 2.11  43 2.11  44 2.11  35 2.11  60 2.11  49 2.12
  14  0.250  0.250  0.451-  46 2.11  43 2.11  44 2.11  36 2.11  59 2.11  50 2.12
  15  0.000  0.250  0.550-  49 2.11  50 2.11  66 2.11  41 2.11  43 2.12  47 2.15
  16  0.250  0.500  0.550-  65 2.11  50 2.11  42 2.11  49 2.11  44 2.13  48 2.15
  17  0.000  0.500  0.649-  48 2.10  64 2.10  49 2.11  47 2.11  39 2.11
  18  0.250  0.250  0.649-  50 2.11  47 2.11  40 2.11  48 2.11  63 2.11
  19  0.500  0.750  0.352-  51 2.11  38 2.11  53 2.11  54 2.11  61 2.11
  20  0.750  0.000  0.352-  52 2.11  37 2.11  53 2.11  54 2.11  62 2.11
  21  0.500  0.000  0.451-  53 2.11  51 2.11  52 2.11  36 2.11  59 2.11  57 2.12
  22  0.750  0.750  0.451-  54 2.11  51 2.11  52 2.11  35 2.11  60 2.11  58 2.12
  23  0.500  0.750  0.550-  65 2.11  58 2.11  42 2.11  57 2.11  51 2.13  55 2.15
  24  0.750  0.000  0.550-  57 2.11  58 2.11  66 2.11  41 2.11  52 2.12  56 2.15
  25  0.500  0.000  0.649-  55 2.10  63 2.10  57 2.11  40 2.11  56 2.11
  26  0.750  0.750  0.649-  58 2.11  56 2.11  39 2.11  55 2.11  64 2.11
  27  0.500  0.250  0.352-  59 2.11  53 2.11  46 2.11  61 2.11  62 2.11
  28  0.750  0.500  0.352-  60 2.11  54 2.11  45 2.11  61 2.11  62 2.11
  29  0.500  0.500  0.451-  61 2.11  51 2.11  59 2.11  60 2.11  44 2.11  65 2.13
  30  0.750  0.250  0.451-  62 2.11  52 2.11  59 2.11  60 2.11  43 2.11  66 2.12
  31  0.500  0.250  0.550-  65 2.11  50 2.11  66 2.11  57 2.11  59 2.13  63 2.15
  32  0.750  0.500  0.550-  65 2.11  58 2.11  66 2.11  49 2.11  60 2.13  64 2.15
  33  0.500  0.500  0.651-  48 2.12  55 2.12  63 2.12  64 2.12  65 2.14
  34  0.750  0.250  0.649-  66 2.11  56 2.11  47 2.11  64 2.11  63 2.11
  35  0.000  0.750  0.451-   3 2.11   5 2.11   6 2.11  13 2.11  22 2.11   7 2.12
  36  0.250  0.000  0.451-   4 2.11   5 2.11   6 2.11  14 2.11  21 2.11   8 2.12
  37  0.000  0.000  0.352-   5 2.11   4 2.11   3 2.11  11 2.11  20 2.11
  38  0.250  0.750  0.352-   6 2.11   4 2.11   3 2.11  12 2.11  19 2.11
  39  0.000  0.750  0.651-   9 2.11  10 2.11  26 2.11  17 2.11   7 2.15
  40  0.250  0.000  0.651-   9 2.11  10 2.11  18 2.11  25 2.11   8 2.15
  41  0.000  0.000  0.550-   9 2.11   8 2.11   7 2.11  15 2.11  24 2.11   5 2.12
  42  0.250  0.750  0.550-  10 2.11   8 2.11   7 2.11  16 2.11  23 2.11   6 2.12
  43  0.000  0.250  0.451-  11 2.11   5 2.11  13 2.11  14 2.11  30 2.11  15 2.12
  44  0.250  0.500  0.451-  12 2.11   6 2.11  13 2.11  14 2.11  29 2.11  16 2.13
  45  0.000  0.500  0.352-  13 2.11  11 2.11  12 2.11   3 2.11  28 2.11
  46  0.250  0.250  0.352-  14 2.11  11 2.11  12 2.11   4 2.11  27 2.11
  47  0.000  0.250  0.651-   9 2.11  18 2.11  34 2.11  17 2.11  15 2.15
  48  0.249  0.500  0.651-  17 2.10  10 2.11  18 2.11  33 2.12  16 2.15
  49  0.000  0.500  0.550-  17 2.11  15 2.11   7 2.11  16 2.11  32 2.11  13 2.12
  50  0.250  0.250  0.550-  18 2.11  15 2.11   8 2.11  16 2.11  31 2.11  14 2.12
  51  0.500  0.750  0.451-  19 2.11   6 2.11  21 2.11  22 2.11  29 2.11  23 2.13
  52  0.750  0.000  0.451-  20 2.11   5 2.11  21 2.11  22 2.11  30 2.11  24 2.12
  53  0.500  0.000  0.352-  21 2.11  19 2.11  20 2.11   4 2.11  27 2.11
  54  0.750  0.750  0.352-  22 2.11  19 2.11  20 2.11   3 2.11  28 2.11
  55  0.500  0.751  0.651-  25 2.10  10 2.11  26 2.11  33 2.12  23 2.15
  56  0.750  0.000  0.651-   9 2.11  26 2.11  34 2.11  25 2.11  24 2.15
  57  0.500  0.000  0.550-  25 2.11  24 2.11   8 2.11  23 2.11  31 2.11  21 2.12
  58  0.750  0.750  0.550-  26 2.11  24 2.11   7 2.11  32 2.11  23 2.11  22 2.12
  59  0.500  0.250  0.451-  27 2.11  21 2.11  14 2.11  29 2.11  30 2.11  31 2.13
  60  0.750  0.500  0.451-  28 2.11  22 2.11  13 2.11  29 2.11  30 2.11  32 2.13
  61  0.500  0.500  0.352-  29 2.11  19 2.11  27 2.11  28 2.11  12 2.11
  62  0.750  0.250  0.352-  30 2.11  20 2.11  27 2.11  28 2.11  11 2.11
  63  0.500  0.249  0.651-  25 2.10  18 2.11  34 2.11  33 2.12  31 2.15
  64  0.751  0.500  0.651-  17 2.10  26 2.11  34 2.11  33 2.12  32 2.15
  65  0.500  0.500  0.550-  16 2.11  23 2.11  31 2.11  32 2.11  29 2.13  33 2.14
  66  0.750  0.250  0.550-  34 2.11  24 2.11  15 2.11  32 2.11  31 2.11  30 2.12

  LATTYP: Found a simple tetragonal cell.
 ALAT       =     8.4409846542
 C/A-ratio  =     2.5270438657
  
  Lattice vectors:
  
 A1 = (   8.4409846542,   0.0000000000,   0.0000000000)
 A2 = (   0.0000000000,   8.4409846542,   0.0000000000)
 A3 = (   0.0000000000,   0.0000000000,  21.3307384906)


Analysis of symmetry for initial positions (statically):
=====================================================================
 Subroutine PRICEL returns:
 Original cell was already a primitive cell.
 

 Routine SETGRP: Setting up the symmetry group for a 
 simple tetragonal supercell.


 Subroutine GETGRP returns: Found  8 space group operations
 (whereof  8 operations were pure point group operations)
 out of a pool of 16 trial point group operations.


The static configuration has the point symmetry C_4v.


Analysis of symmetry for dynamics (positions and initial velocities):
=====================================================================
 Subroutine PRICEL returns:
 Original cell was already a primitive cell.
 

 Routine SETGRP: Setting up the symmetry group for a 
 simple tetragonal supercell.


 Subroutine GETGRP returns: Found  8 space group operations
 (whereof  8 operations were pure point group operations)
 out of a pool of 16 trial point group operations.


The dynamic configuration has the point symmetry C_4v.


 Subroutine INISYM returns: Found  8 space group operations
 (whereof  8 operations are pure point group operations),
 and found     1 'primitive' translations


----------------------------------------------------------------------------------------

                                     Primitive cell                                     

  volume of cell :    1519.8199

  direct lattice vectors                    reciprocal lattice vectors
     8.440984654  0.000000000  0.000000000     0.118469591  0.000000000  0.000000000
     0.000000000  8.440984654  0.000000000     0.000000000  0.118469591  0.000000000
     0.000000000  0.000000000 21.330738491     0.000000000  0.000000000  0.046880702

  length of vectors
     8.440984654  8.440984654 21.330738491     0.118469591  0.118469591  0.046880702

  position of ions in fractional coordinates (direct lattice)
     0.500000000  0.500000000  0.764537067
     0.500000000  0.500000000  0.818300785
     0.000000000  0.750000000  0.351605267
     0.250000000  0.000000000  0.351605267
     0.000000000  0.000000000  0.450535089
     0.250000000  0.750000000  0.450535089
     0.000000000  0.749939268  0.550083239
     0.250060732  0.000000000  0.550083239
     0.000000000  0.000000000  0.648745309
     0.249858327  0.750141673  0.648569547
     0.000000000  0.250000000  0.351605267
     0.250000000  0.500000000  0.351605267
     0.000000000  0.500000000  0.450535089
     0.250000000  0.250000000  0.450535089
     0.000000000  0.250060732  0.550083239
     0.250378379  0.500000000  0.550219524
     0.000000000  0.500000000  0.648615280
     0.249858327  0.249858327  0.648569547
     0.500000000  0.750000000  0.351605267
     0.750000000  0.000000000  0.351605267
     0.500000000  0.000000000  0.450535089
     0.750000000  0.750000000  0.450535089
     0.500000000  0.749621621  0.550219524
     0.749939268  0.000000000  0.550083239
     0.500000000  0.000000000  0.648615280
     0.750141673  0.750141673  0.648569547
     0.500000000  0.250000000  0.351605267
     0.750000000  0.500000000  0.351605267
     0.500000000  0.500000000  0.450535089
     0.750000000  0.250000000  0.450535089
     0.500000000  0.250378379  0.550219524
     0.749621621  0.500000000  0.550219524
     0.500000000  0.500000000  0.650616960
     0.750141673  0.249858327  0.648569547
     0.000000000  0.750000000  0.450535089
     0.250000000  0.000000000  0.450535089
     0.000000000  0.000000000  0.351605267
     0.250000000  0.750000000  0.351605267
     0.000000000  0.750218533  0.650979255
     0.249781467  0.000000000  0.650979255
     0.000000000  0.000000000  0.549809890
     0.249945770  0.750054230  0.549859113
     0.000000000  0.250000000  0.450535089
     0.250000000  0.500000000  0.450535089
     0.000000000  0.500000000  0.351605267
     0.250000000  0.250000000  0.351605267
     0.000000000  0.249781467  0.650979255
     0.248822710  0.500000000  0.650882872
     0.000000000  0.500000000  0.549762666
     0.249945770  0.249945770  0.549859113
     0.500000000  0.750000000  0.450535089
     0.750000000  0.000000000  0.450535089
     0.500000000  0.000000000  0.351605267
     0.750000000  0.750000000  0.351605267
     0.500000000  0.751177290  0.650882872
     0.750218533  0.000000000  0.650979255
     0.500000000  0.000000000  0.549762666
     0.750054230  0.750054230  0.549859113
     0.500000000  0.250000000  0.450535089
     0.750000000  0.500000000  0.450535089
     0.500000000  0.500000000  0.351605267
     0.750000000  0.250000000  0.351605267
     0.500000000  0.248822710  0.650882872
     0.751177290  0.500000000  0.650882872
     0.500000000  0.500000000  0.550231357
     0.750054230  0.249945770  0.549859113

  ion indices of the primitive-cell ions
   primitive index   ion index
                 1           1
                 2           2
                 3           3
                 4           4
                 5           5
                 6           6
                 7           7
                 8           8
                 9           9
                10          10
                11          11
                12          12
                13          13
                14          14
                15          15
                16          16
                17          17
                18          18
                19          19
                20          20
                21          21
                22          22
                23          23
                24          24
                25          25
                26          26
                27          27
                28          28
                29          29
                30          30
                31          31
                32          32
                33          33
                34          34
                35          35
                36          36
                37          37
                38          38
                39          39
                40          40
                41          41
                42          42
                43          43
                44          44
                45          45
                46          46
                47          47
                48          48
                49          49
                50          50
                51          51
                52          52
                53          53
                54          54
                55          55
                56          56
                57          57
                58          58
                59          59
                60          60
                61          61
                62          62
                63          63
                64          64
                65          65
                66          66

----------------------------------------------------------------------------------------



 KPOINTS: pymatgen v2020.8.13 with grid density = 

Automatic generation of k-mesh.
 Grid dimensions read from file:
 generate k-points for:    2    2    1

 Generating k-lattice:

  Cartesian coordinates                     Fractional coordinates (reciprocal lattice)
     0.059234796  0.000000000  0.000000000     0.500000000  0.000000000  0.000000000
     0.000000000  0.059234796  0.000000000     0.000000000  0.500000000  0.000000000
     0.000000000  0.000000000  0.046880702     0.000000000  0.000000000  1.000000000

  Length of vectors
     0.059234796  0.059234796  0.046880702

  Shift w.r.t. Gamma in fractional coordinates (k-lattice)
     0.000000000  0.000000000  0.000000000

 
 Subroutine IBZKPT returns following result:
 ===========================================
 
 Found      3 irreducible k-points:
 
 Following reciprocal coordinates:
            Coordinates               Weight
  0.000000  0.000000  0.000000      1.000000
  0.500000  0.000000  0.000000      2.000000
  0.500000  0.500000  0.000000      1.000000
 
 Following cartesian coordinates:
            Coordinates               Weight
  0.000000  0.000000  0.000000      1.000000
  0.059235  0.000000  0.000000      2.000000
  0.059235  0.059235  0.000000      1.000000
 
 
 Subroutine IBZKPT_HF returns following result:
 ==============================================
 
 Found      4 k-points in 1st BZ
 the following      4 k-points will be used (e.g. in the exchange kernel)
 Following reciprocal coordinates:   # in IRBZ
  0.000000  0.000000  0.000000    0.25000000   1 t-inv F
  0.500000  0.000000  0.000000    0.25000000   2 t-inv F
  0.500000  0.500000  0.000000    0.25000000   3 t-inv F
 -0.000000  0.500000  0.000000    0.25000000   2 t-inv F


--------------------------------------------------------------------------------------------------------




 Dimension of arrays:
   k-points           NKPTS =      3   k-points in BZ     NKDIM =      4   number of bands    NBANDS=    320
   number of dos      NEDOS =    301   number of ions     NIONS =     66
   non local maximal  LDIM  =      5   non local SUM 2l+1 LMDIM =     13
   total plane-waves  NPLWV = 373248
   max r-space proj   IRMAX =      1   max aug-charges    IRDMAX=   5039
   dimension x,y,z NGX =    54 NGY =   54 NGZ =  128
   dimension x,y,z NGXF=   108 NGYF=  108 NGZF=  256
   support grid    NGXF=   108 NGYF=  108 NGZF=  256
   ions per type =               1   1  32  32
   NGX,Y,Z   is equivalent  to a cutoff of  10.64, 10.64,  9.98 a.u.
   NGXF,Y,Z  is equivalent  to a cutoff of  21.27, 21.27, 19.95 a.u.

 SYSTEM =  MgO-rocksalt                            
 POSCAR =   C  O Mg  O                             

 Startparameter for this run:
   NWRITE =      2    write-flag & timer
   PREC   = normal    normal or accurate (medium, high low for compatibility)
   ISTART =      0    job   : 0-new  1-cont  2-samecut
   ICHARG =      2    charge: 1-file 2-atom 10-const
   ISPIN  =      1    spin polarized calculation?
   LNONCOLLINEAR =      F non collinear calculations
   LSORBIT =      F    spin-orbit coupling
   INIWAV =      1    electr: 0-lowe 1-rand  2-diag
   LASPH  =      T    aspherical Exc in radial PAW
 Electronic Relaxation 1
   ENCUT  =  600.0 eV  44.10 Ry    6.64 a.u.  16.86 16.86 42.60*2*pi/ulx,y,z
   ENINI  =  600.0     initial cutoff
   ENAUG  =  758.8 eV  augmentation charge cutoff
   NELM   =    200;   NELMIN=  8; NELMDL= -5     # of ELM steps 
   EDIFF  = 0.1E-05   stopping-criterion for ELM
   LREAL  =      F    real-space projection
   NLSPLINE    = F    spline interpolate recip. space projectors
   LCOMPAT=      F    compatible to vasp.4.4
   GGA_COMPAT  = T    GGA compatible to vasp.4.4-vasp.4.6
   LMAXPAW     = -100 max onsite density
   LMAXMIX     =    2 max onsite mixed and CHGCAR
   VOSKOWN=      0    Vosko Wilk Nusair interpolation
   ROPT   =    0.00000   0.00000   0.00000   0.00000
 Ionic relaxation
   EDIFFG = -.1E-01   stopping-criterion for IOM
   NSW    =      0    number of steps for IOM
   NBLOCK =      1;   KBLOCK =      1    inner block; outer block 
   IBRION =     -1    ionic relax: 0-MD 1-quasi-New 2-CG
   NFREE  =      0    steps in history (QN), initial steepest desc. (CG)
   ISIF   =      2    stress and relaxation
   IWAVPR =     10    prediction:  0-non 1-charg 2-wave 3-comb
   ISYM   =      2    0-nonsym 1-usesym 2-fastsym
   LCORR  =      T    Harris-Foulkes like correction to forces

   POTIM  = 0.5000    time-step for ionic-motion
   TEIN   =    0.0    initial temperature
   TEBEG  =    0.0;   TEEND  =   0.0 temperature during run
   SMASS  =  -3.00    Nose mass-parameter (am)
   estimated Nose-frequenzy (Omega)   =  0.10E-29 period in steps = 0.13E+47 mass=  -0.163E-26a.u.
   SCALEE = 1.0000    scale energy and forces
   NPACO  =    256;   APACO  = 10.0  distance and # of slots for P.C.
   PSTRESS=    0.0 pullay stress

  Mass of Ions in am
   POMASS =  12.01 16.00 24.30 16.00
  Ionic Valenz
   ZVAL   =   4.00  6.00  8.00  6.00
  Atomic Wigner-Seitz radii
   RWIGS  =  -1.00 -1.00 -1.00 -1.00
  virtual crystal weights 
   VCA    =   1.00  1.00  1.00  1.00
   NELECT =     458.0000    total number of electrons
   NUPDOWN=      -1.0000    fix difference up-down

 DOS related values:
   EMIN   =  10.00;   EMAX   =-10.00  energy-range for DOS
   EFERMI =   0.00
   ISMEAR =     0;   SIGMA  =   0.05  broadening in eV -4-tet -1-fermi 0-gaus

 Electronic relaxation 2 (details)
   IALGO  =     58    algorithm
   LDIAG  =      T    sub-space diagonalisation (order eigenvalues)
   LSUBROT=      F    optimize rotation matrix (better conditioning)
   TURBO    =      0    0=normal 1=particle mesh
   IRESTART =      0    0=no restart 2=restart with 2 vectors
   NREBOOT  =      0    no. of reboots
   NMIN     =      0    reboot dimension
   EREF     =   0.00    reference energy to select bands
   IMIX   =      4    mixing-type and parameters
     AMIX     =   0.40;   BMIX     =  1.00
     AMIX_MAG =   1.60;   BMIX_MAG =  1.00
     AMIN     =   0.10
     WC   =   100.;   INIMIX=   1;  MIXPRE=   1;  MAXMIX= -45

 Intra band minimization:
   WEIMIN = 0.0000     energy-eigenvalue tresh-hold
   EBREAK =  0.78E-09  absolut break condition
   DEPER  =   0.30     relativ break condition  

   TIME   =   0.40     timestep for ELM

  volume/ion in A,a.u.               =      23.03       155.40
  Fermi-wavevector in a.u.,A,eV,Ry     =   1.097571  2.074108 16.390423  1.204662
  Thomas-Fermi vector in A             =   2.233933

 Write flags
   LWAVE        =      F    write WAVECAR
   LDOWNSAMPLE  =      F    k-point downsampling of WAVECAR
   LCHARG       =      F    write CHGCAR
   LVTOT        =      F    write LOCPOT, total local potential
   LVHAR        =      F    write LOCPOT, Hartree potential only
   LELF         =      F    write electronic localiz. function (ELF)
   LORBIT       =      0    0 simple, 1 ext, 2 COOP (PROOUT), +10 PAW based schemes


 Dipole corrections
   LMONO  =      F    monopole corrections only (constant potential shift)
   LDIPOL =      T    correct potential (dipole corrections)
   IDIPOL =      3    1-x, 2-y, 3-z, 4-all directions 
   EPSILON=  1.0000000 bulk dielectric constant

 Exchange correlation treatment:
   GGA     =    PE    GGA type
   LEXCH   =     8    internal setting for exchange type
   LIBXC   =     F    Libxc                    
   VOSKOWN =     0    Vosko Wilk Nusair interpolation
   EXXOEP  =     0    0=HF, 1=EXX-LHF (local Hartree Fock) 2=EXX OEP
   LHFCALC =     T    Hartree Fock is set to
   LSYMGRAD=     F    symmetrize gradient (conserves proper symmetry)
   PRECFOCK=normal    Normal, Fast or Accurate (Low or Medium for compatibility)
   LRHFCALC=     F    long range Hartree Fock
   LRSCOR  =     F    long range correlation only (use DFT for short range part)
   LTHOMAS =     F    Thomas Fermi screening in HF
   LMODELHF=     F    short range full HF, long range fraction AEXX
   LFOCKACE=     T    use Adeptively-Compressed-Exchange operator
   ENCUT4O =  -1.0   cutoff for four orbital integrals eV
   LMAXFOCK=     4    L truncation for augmentation on plane wave grid
   LMAXFOCKAE=  -1    L truncation for all-electron charge restoration on plane wave grid
   NMAXFOCKAE=   1    number of basis functions for all-electron charge restoration
   LFOCKAEDFT=     F  apply the AE augmentation even for DFT
   NKREDX  =     1    reduce k-point grid by
   NKREDY  =     1    reduce k-point grid by
   NKREDZ  =     1    reduce k-point grid by
   SHIFTRED=     F    shift reduced grid of Gamma
   HFKIDENT=     F    idential grid for each k-point
   ODDONLY =     F    use only odd q-grid points
   EVENONLY=     F    use only even q-grid points
   HFALPHA =   -1.0000 decay constant for conv. correction
   MCALPHA =    0.0000 extent of test-charge in conv. correction in multipole expansion
   AEXX    =    0.2500 exact exchange contribution
   HFSCREEN=    0.0000 screening length (either q_TF or 0.3 A-1)
   HFSCREENC=   0.0000 screening length for correlation (either q_TF or 0.3 A-1)
   HFRCUT  =    0.0000 spherical cutoff for potential kernel
   ALDAX   =    0.7500 LDA exchange part
   AGGAX   =    0.7500 GGA exchange part
   ALDAC   =    1.0000 LDA correlation
   AGGAC   =    1.0000 GGA correlation
   ENCUTFOCK=  -1.0 apply spherical cutoff to Coloumb kernel
   NBANDSGWLOW=     1    first orbital included in HF term
   NBLOCK_FOCK=    64    blocking factor in FOCK_ACC

 Linear response parameters
   LEPSILON=     F    determine dielectric tensor
   LRPA    =     F    only Hartree local field effects (RPA)
   LNABLA  =     F    use nabla operator in PAW spheres
   LVEL    =     F    velocity operator in full k-point grid
   CSHIFT  =0.1000    complex shift for real part using Kramers Kronig
   OMEGAMAX=  -1.0    maximum frequency
   DEG_THRESHOLD= 0.2000000E-02 threshold for treating states as degnerate
   RTIME   =   -0.100 relaxation time in fs
  (WPLASMAI=    0.000 imaginary part of plasma frequency in eV, 0.658/RTIME)
   DFIELD  = 0.0000000 0.0000000 0.0000000 field for delta impulse in time

  Optional k-point grid parameters
   LKPOINTS_OPT  =     F    use optional k-point grid
   KPOINTS_OPT_MODE=     1    mode for optional k-point grid

 Orbital magnetization related:
   ORBITALMAG=     F  switch on orbital magnetization
   LCHIMAG   =     F  perturbation theory with respect to B field
   DQ        =  0.001000  dq finite difference perturbation B field
   LLRAUG    =     F  two centre corrections for induced B field



--------------------------------------------------------------------------------------------------------


 Static calculation
 charge density and potential will be updated during run
 non-spin polarized calculation
 Conjugate gradient for all bands (Freysoldt, et al. PRB 79, 241103 (2009))
 preconditioned conjugated gradient                                        
 perform sub-space diagonalisation
    before iterative eigenvector-optimisation
 modified Broyden-mixing scheme, WC =      100.0
 initial mixing is a Kerker type mixing with AMIX =  0.4000 and BMIX =      1.0000
 Hartree-type preconditioning will be used
 using additional bands           91
 reciprocal scheme for non local part
 use partial core corrections
 no Harris-corrections to forces 
 use gradient corrections 
 use of overlap-Matrix (Vanderbilt PP)
 Gauss-broadening in eV      SIGMA  =   0.05


--------------------------------------------------------------------------------------------------------


  energy-cutoff  :      600.00
  volume of cell :     1519.82
      direct lattice vectors                 reciprocal lattice vectors
     8.440984654  0.000000000  0.000000000     0.118469591  0.000000000  0.000000000
     0.000000000  8.440984654  0.000000000     0.000000000  0.118469591  0.000000000
     0.000000000  0.000000000 21.330738491     0.000000000  0.000000000  0.046880702

  length of vectors
     8.440984654  8.440984654 21.330738491     0.118469591  0.118469591  0.046880702



 k-points in units of 2pi/SCALE and weight: pymatgen v2020.8.13 with grid density = 
   0.00000000  0.00000000  0.00000000       0.250
   0.05923480  0.00000000  0.00000000       0.500
   0.05923480  0.05923480  0.00000000       0.250

 k-points in reciprocal lattice and weights: pymatgen v2020.8.13 with grid density = 
   0.00000000  0.00000000  0.00000000       0.250
   0.50000000  0.00000000  0.00000000       0.500
   0.50000000  0.50000000  0.00000000       0.250

 position of ions in fractional coordinates (direct lattice) 
   0.50000000  0.50000000  0.76453707
   0.50000000  0.50000000  0.81830078
   0.00000000  0.75000000  0.35160527
   0.25000000  0.00000000  0.35160527
   0.00000000  0.00000000  0.45053509
   0.25000000  0.75000000  0.45053509
   0.00000000  0.74993927  0.55008324
   0.25006073  0.00000000  0.55008324
   0.00000000  0.00000000  0.64874531
   0.24985833  0.75014167  0.64856955
   0.00000000  0.25000000  0.35160527
   0.25000000  0.50000000  0.35160527
   0.00000000  0.50000000  0.45053509
   0.25000000  0.25000000  0.45053509
   0.00000000  0.25006073  0.55008324
   0.25037838  0.50000000  0.55021952
   0.00000000  0.50000000  0.64861528
   0.24985833  0.24985833  0.64856955
   0.50000000  0.75000000  0.35160527
   0.75000000  0.00000000  0.35160527
   0.50000000  0.00000000  0.45053509
   0.75000000  0.75000000  0.45053509
   0.50000000  0.74962162  0.55021952
   0.74993927  0.00000000  0.55008324
   0.50000000  0.00000000  0.64861528
   0.75014167  0.75014167  0.64856955
   0.50000000  0.25000000  0.35160527
   0.75000000  0.50000000  0.35160527
   0.50000000  0.50000000  0.45053509
   0.75000000  0.25000000  0.45053509
   0.50000000  0.25037838  0.55021952
   0.74962162  0.50000000  0.55021952
   0.50000000  0.50000000  0.65061696
   0.75014167  0.24985833  0.64856955
   0.00000000  0.75000000  0.45053509
   0.25000000  0.00000000  0.45053509
   0.00000000  0.00000000  0.35160527
   0.25000000  0.75000000  0.35160527
   0.00000000  0.75021853  0.65097926
   0.24978147  0.00000000  0.65097926
   0.00000000  0.00000000  0.54980989
   0.24994577  0.75005423  0.54985911
   0.00000000  0.25000000  0.45053509
   0.25000000  0.50000000  0.45053509
   0.00000000  0.50000000  0.35160527
   0.25000000  0.25000000  0.35160527
   0.00000000  0.24978147  0.65097926
   0.24882271  0.50000000  0.65088287
   0.00000000  0.50000000  0.54976267
   0.24994577  0.24994577  0.54985911
   0.50000000  0.75000000  0.45053509
   0.75000000  0.00000000  0.45053509
   0.50000000  0.00000000  0.35160527
   0.75000000  0.75000000  0.35160527
   0.50000000  0.75117729  0.65088287
   0.75021853  0.00000000  0.65097926
   0.50000000  0.00000000  0.54976267
   0.75005423  0.75005423  0.54985911
   0.50000000  0.25000000  0.45053509
   0.75000000  0.50000000  0.45053509
   0.50000000  0.50000000  0.35160527
   0.75000000  0.25000000  0.35160527
   0.50000000  0.24882271  0.65088287
   0.75117729  0.50000000  0.65088287
   0.50000000  0.50000000  0.55023136
   0.75005423  0.24994577  0.54985911

 position of ions in cartesian coordinates  (Angst):
   4.22049233  4.22049233 16.30814023
   4.22049233  4.22049233 17.45496005
   0.00000000  6.33073849  7.50000000
   2.11024616  0.00000000  7.50000000
   0.00000000  0.00000000  9.61024616
   2.11024616  6.33073849  9.61024616
   0.00000000  6.33022585 11.73368172
   2.11075880  0.00000000 11.73368172
   0.00000000  0.00000000 13.83821654
   2.10905031  6.33193435 13.83446740
   0.00000000  2.11024616  7.50000000
   2.11024616  4.22049233  7.50000000
   0.00000000  4.22049233  9.61024616
   2.11024616  2.11024616  9.61024616
   0.00000000  2.11075880 11.73368172
   2.11344006  4.22049233 11.73658877
   0.00000000  4.22049233 13.83544293
   2.10905031  2.10905031 13.83446740
   4.22049233  6.33073849  7.50000000
   6.33073849  0.00000000  7.50000000
   4.22049233  0.00000000  9.61024616
   6.33073849  6.33073849  9.61024616
   4.22049233  6.32754460 11.73658877
   6.33022585  0.00000000 11.73368172
   4.22049233  0.00000000 13.83544293
   6.33193435  6.33193435 13.83446740
   4.22049233  2.11024616  7.50000000
   6.33073849  4.22049233  7.50000000
   4.22049233  4.22049233  9.61024616
   6.33073849  2.11024616  9.61024616
   4.22049233  2.11344006 11.73658877
   6.32754460  4.22049233 11.73658877
   4.22049233  4.22049233 13.87814023
   6.33193435  2.10905031 13.83446740
   0.00000000  6.33073849  9.61024616
   2.11024616  0.00000000  9.61024616
   0.00000000  0.00000000  7.50000000
   2.11024616  6.33073849  7.50000000
   0.00000000  6.33258312 13.88586825
   2.10840153  0.00000000 13.88586825
   0.00000000  0.00000000 11.72785099
   2.10978841  6.33119624 11.72890095
   0.00000000  2.11024616  9.61024616
   2.11024616  4.22049233  9.61024616
   0.00000000  4.22049233  7.50000000
   2.11024616  2.11024616  7.50000000
   0.00000000  2.10840153 13.88586825
   2.10030867  4.22049233 13.88381232
   0.00000000  4.22049233 11.72684365
   2.10978841  2.10978841 11.72890095
   4.22049233  6.33073849  9.61024616
   6.33073849  0.00000000  9.61024616
   4.22049233  0.00000000  7.50000000
   6.33073849  6.33073849  7.50000000
   4.22049233  6.34067598 13.88381232
   6.33258312  0.00000000 13.88586825
   4.22049233  0.00000000 11.72684365
   6.33119624  6.33119624 11.72890095
   4.22049233  2.11024616  9.61024616
   6.33073849  4.22049233  9.61024616
   4.22049233  4.22049233  7.50000000
   6.33073849  2.11024616  7.50000000
   4.22049233  2.10030867 13.88381232
   6.34067598  4.22049233 13.88381232
   4.22049233  4.22049233 11.73684118
   6.33119624  2.10978841 11.72890095



--------------------------------------------------------------------------------------------------------


 k-point   1 :   0.0000 0.0000 0.0000  plane waves:   50745
 k-point   2 :   0.5000 0.0000 0.0000  plane waves:   50798
 k-point   3 :   0.5000 0.5000 0.0000  plane waves:   50752

 maximum and minimum number of plane-waves per node :      6394     6276

 maximum number of plane-waves:     50798
 maximum index in each direction: 
   IXMAX=   16   IYMAX=   16   IZMAX=   42
   IXMIN=  -17   IYMIN=  -17   IZMIN=  -42


 parallel 3D FFT for wavefunctions:
    minimum data exchange during FFTs selected (reduces bandwidth)
 parallel 3D FFT for charge:
    minimum data exchange during FFTs selected (reduces bandwidth)


 Radii for the augmentation spheres in the non-local exchange
 for species   1 augmentation radius   0.874 (default was   0.699)
       energy cutoff for augmentation   2400.0
 for species   2 augmentation radius   0.902 (default was   0.722)
       energy cutoff for augmentation   2400.0
 for species   3 augmentation radius   1.037 (default was   0.829)
       energy cutoff for augmentation   2400.0
 for species   4 augmentation radius   0.902 (default was   0.722)
       energy cutoff for augmentation   2400.0

 real space projection operators:
  total allocation   :       8963.44 KBytes
  max/ min on nodes  :       1251.48        828.03

 Maximum index for augmentation-charges in exchange          164
  SETUP_FOCK is finished

 total amount of memory used by VASP MPI-rank0    60467. kBytes
=======================================================================

   base      :      30000. kBytes
   nonl-proj :      14893. kBytes
   fftplans  :       3932. kBytes
   grid      :       3944. kBytes
   one-center:         73. kBytes
   HF        :        101. kBytes
   nonlr-proj:       2778. kBytes
   wavefun   :       4746. kBytes

     INWAV:  cpu time      0.0001: real time      0.0003
 Broyden mixing: mesh for mixing (old mesh)
   NGX = 33   NGY = 33   NGZ = 85
  (NGX  =108   NGY  =108   NGZ  =256)
  gives a total of  92565 points

 initial charge density was supplied:
 charge density of overlapping atoms calculated
 number of electron     458.0000000 magnetization 
 keeping initial charge density in first step


--------------------------------------------------------------------------------------------------------


 Maximum index for augmentation-charges          334 (set IRDMAX)


--------------------------------------------------------------------------------------------------------


    FEWALD:  cpu time      0.0027: real time      0.0027


--------------------------------------- Iteration      1(   1)  ---------------------------------------


    POTLOK:  cpu time      0.0653: real time      0.0660
    SETDIJ:  cpu time      0.1924: real time      0.1924
    TRIAL :  cpu time     18.7480: real time     18.8461
    CORREC:  cpu time      0.0012: real time      0.0013
    --------------------------------------------
      LOOP:  cpu time     19.0084: real time     19.1349

 eigenvalue-minimisations  :  2304
 total energy-change (2. order) : 0.5643914E+03  (-0.3099672E+05)
 number of electron     458.0000000 magnetization 
 augmentation part      458.0000000 magnetization 

 DIPCOR: dipole corrections for dipol
 direction  3 min pos     1,
 dipolmoment           0.000000      0.000000     -0.000258 electrons x Angstroem
 Tr[quadrupol]     -6318.707398

 energy correction for charged system         0.000000 eV
 dipol+quadrupol energy correction           -0.000000 eV
 added-field ion interaction          0.002086 eV  (added to PSCEN)


 Free energy of the ion-electron system (eV)
  ---------------------------------------------------
  alpha Z        PSCENC =       907.96619046
  Ewald energy   TEWEN  =    137168.79583274
  -Hartree energ DENC   =   -173267.57244073
  -exchange      EXHF   =         0.00000000
  -V(xc)+E(xc)   XCENC  =      1789.21228960
  PAW double counting   =     32310.01086261   -39107.06083553
  entropy T*S    EENTRO =        -0.01391483
  eigenvalues    EBANDS =     -7344.46743647
  atomic energy  EATOM  =     48107.52088990
  ---------------------------------------------------
  free energy    TOTEN  =       564.39143776 eV

  energy without entropy =      564.40535258  energy(sigma->0) =      564.39839517
  exchange ACFDT corr.  =         0.00000000  see jH, gK, PRB 81, 115126


--------------------------------------------------------------------------------------------------------




--------------------------------------- Iteration      1(   2)  ---------------------------------------


    TRIAL :  cpu time      2.8447: real time      2.8449
    CORREC:  cpu time      0.0003: real time      0.0003
    --------------------------------------------
      LOOP:  cpu time      2.8509: real time      2.8600

 eigenvalue-minimisations  :  2304
 total energy-change (2. order) :-0.4307889E+04  (-0.4235912E+04)
 number of electron     458.0000000 magnetization 
 augmentation part      458.0000000 magnetization 

 DIPCOR: dipole corrections for dipol
 direction  3 min pos     1,
 dipolmoment           0.000000      0.000000     -0.000258 electrons x Angstroem
 Tr[quadrupol]     -6318.707398

 energy correction for charged system         0.000000 eV
 dipol+quadrupol energy correction           -0.000000 eV
 added-field ion interaction          0.002086 eV  (added to PSCEN)


 Free energy of the ion-electron system (eV)
  ---------------------------------------------------
  alpha Z        PSCENC =       907.96619046
  Ewald energy   TEWEN  =    137168.79583274
  -Hartree energ DENC   =   -173267.57244073
  -exchange      EXHF   =         0.00000000
  -V(xc)+E(xc)   XCENC  =      1789.21228960
  PAW double counting   =     32310.01086261   -39107.06083553
  entropy T*S    EENTRO =        -0.00000000
  eigenvalues    EBANDS =    -11652.36987279
  atomic energy  EATOM  =     48107.52088990
  ---------------------------------------------------
  free energy    TOTEN  =     -3743.49708374 eV

  energy without entropy =    -3743.49708374  energy(sigma->0) =    -3743.49708374
  exchange ACFDT corr.  =         0.00000000  see jH, gK, PRB 81, 115126


--------------------------------------------------------------------------------------------------------




--------------------------------------- Iteration      1(   3)  ---------------------------------------


    TRIAL :  cpu time      3.0368: real time      3.0370
    CORREC:  cpu time      0.0003: real time      0.0003
    --------------------------------------------
      LOOP:  cpu time      3.0429: real time      3.0514

 eigenvalue-minimisations  :  2304
 total energy-change (2. order) :-0.3176500E+03  (-0.3154855E+03)
 number of electron     458.0000000 magnetization 
 augmentation part      458.0000000 magnetization 

 DIPCOR: dipole corrections for dipol
 direction  3 min pos     1,
 dipolmoment           0.000000      0.000000     -0.000258 electrons x Angstroem
 Tr[quadrupol]     -6318.707398

 energy correction for charged system         0.000000 eV
 dipol+quadrupol energy correction           -0.000000 eV
 added-field ion interaction          0.002086 eV  (added to PSCEN)


 Free energy of the ion-electron system (eV)
  ---------------------------------------------------
  alpha Z        PSCENC =       907.96619046
  Ewald energy   TEWEN  =    137168.79583274
  -Hartree energ DENC   =   -173267.57244073
  -exchange      EXHF   =         0.00000000
  -V(xc)+E(xc)   XCENC  =      1789.21228960
  PAW double counting   =     32310.01086261   -39107.06083553
  entropy T*S    EENTRO =        -0.00000000
  eigenvalues    EBANDS =    -11970.01986991
  atomic energy  EATOM  =     48107.52088990
  ---------------------------------------------------
  free energy    TOTEN  =     -4061.14708086 eV

  energy without entropy =    -4061.14708086  energy(sigma->0) =    -4061.14708086
  exchange ACFDT corr.  =         0.00000000  see jH, gK, PRB 81, 115126


--------------------------------------------------------------------------------------------------------




--------------------------------------- Iteration      1(   4)  ---------------------------------------


    TRIAL :  cpu time      3.1606: real time      3.1611
    CORREC:  cpu time      0.0003: real time      0.0003
    --------------------------------------------
      LOOP:  cpu time      3.1746: real time      3.1754

 eigenvalue-minimisations  :  2368
 total energy-change (2. order) :-0.6219264E+01  (-0.6212378E+01)
 number of electron     458.0000000 magnetization 
 augmentation part      458.0000000 magnetization 

 DIPCOR: dipole corrections for dipol
 direction  3 min pos     1,
 dipolmoment           0.000000      0.000000     -0.000258 electrons x Angstroem
 Tr[quadrupol]     -6318.707398

 energy correction for charged system         0.000000 eV
 dipol+quadrupol energy correction           -0.000000 eV
 added-field ion interaction          0.002086 eV  (added to PSCEN)


 Free energy of the ion-electron system (eV)
  ---------------------------------------------------
  alpha Z        PSCENC =       907.96619046
  Ewald energy   TEWEN  =    137168.79583274
  -Hartree energ DENC   =   -173267.57244073
  -exchange      EXHF   =         0.00000000
  -V(xc)+E(xc)   XCENC  =      1789.21228960
  PAW double counting   =     32310.01086261   -39107.06083553
  entropy T*S    EENTRO =        -0.00000000
  eigenvalues    EBANDS =    -11976.23913347
  atomic energy  EATOM  =     48107.52088990
  ---------------------------------------------------
  free energy    TOTEN  =     -4067.36634442 eV

  energy without entropy =    -4067.36634442  energy(sigma->0) =    -4067.36634442
  exchange ACFDT corr.  =         0.00000000  see jH, gK, PRB 81, 115126


--------------------------------------------------------------------------------------------------------




--------------------------------------- Iteration      1(   5)  ---------------------------------------


    POTLOK:  cpu time      0.0459: real time      0.0459
    SETDIJ:  cpu time      0.1888: real time      0.1889
    TRIAL :  cpu time     71.7642: real time     71.7747
    CORREC:  cpu time      0.0002: real time      0.0002
    CHARGE:  cpu time      0.0654: real time      0.0659
    --------------------------------------------
      LOOP:  cpu time     72.0696: real time     72.0900

 eigenvalue-minimisations  :  2304
 total energy-change (2. order) : 0.3506844E+04  (-0.2334764E+01)
 number of electron     457.9999402 magnetization 
 augmentation part      160.4802985 magnetization 

 DIPCOR: dipole corrections for dipol
 direction  3 min pos     1,
 dipolmoment           0.000000      0.000000     -0.000258 electrons x Angstroem
 Tr[quadrupol]     -6318.707398

 energy correction for charged system         0.000000 eV
 dipol+quadrupol energy correction           -0.000000 eV
 added-field ion interaction          0.002086 eV  (added to PSCEN)


 Free energy of the ion-electron system (eV)
  ---------------------------------------------------
  alpha Z        PSCENC =       907.96619046
  Ewald energy   TEWEN  =    137168.79583274
  -Hartree energ DENC   =   -173267.57244073
  -exchange      EXHF   =      1704.37819826
  -V(xc)+E(xc)   XCENC  =      1368.25894374
  PAW double counting   =     32705.07187869   -36310.02099081
  entropy T*S    EENTRO =        -0.00000000
  eigenvalues    EBANDS =    -12944.92132500
  atomic energy  EATOM  =     48107.52088990
  ---------------------------------------------------
  free energy    TOTEN  =      -560.52282274 eV

  energy without entropy =     -560.52282274  energy(sigma->0) =     -560.52282274
  exchange ACFDT corr.  =        -0.00000000  see jH, gK, PRB 81, 115126


--------------------------------------------------------------------------------------------------------




--------------------------------------- Iteration      1(   6)  ---------------------------------------


    POTLOK:  cpu time      0.0466: real time      0.0466
    SETDIJ:  cpu time      0.1890: real time      0.1890
    TRIAL :  cpu time     69.2287: real time     69.2384
    CORREC:  cpu time     69.1184: real time     69.1263
    CHARGE:  cpu time      0.0583: real time      0.0583
    --------------------------------------------
      LOOP:  cpu time    138.6578: real time    138.6757

 eigenvalue-minimisations  :     0
 total energy-change (2. order) : 0.2107777E+03  (-0.1126986E+03)
 number of electron     457.9999288 magnetization 
 augmentation part      156.9932919 magnetization 

 DIPCOR: dipole corrections for dipol
 direction  3 min pos     1,
 dipolmoment           0.000000      0.000000      0.307812 electrons x Angstroem
 Tr[quadrupol]     -6352.384817

 energy correction for charged system         0.000000 eV
 dipol+quadrupol energy correction           -0.005641 eV
 added-field ion interaction         -2.488362 eV  (added to PSCEN)


 Free energy of the ion-electron system (eV)
  ---------------------------------------------------
  alpha Z        PSCENC =       903.53408841
  Ewald energy   TEWEN  =    137168.79583274
  -Hartree energ DENC   =   -177314.57819179
  -exchange      EXHF   =      1707.47696290
  -V(xc)+E(xc)   XCENC  =      1473.21329623
  PAW double counting   =     37952.83521896   -41522.79713225
  entropy T*S    EENTRO =        -0.00000000
  eigenvalues    EBANDS =     -8825.74608106
  atomic energy  EATOM  =     48107.52088990
  ---------------------------------------------------
  free energy    TOTEN  =      -349.74511596 eV

  energy without entropy =     -349.74511596  energy(sigma->0) =     -349.74511596
  exchange ACFDT corr.  =         0.00000000  see jH, gK, PRB 81, 115126


--------------------------------------------------------------------------------------------------------




--------------------------------------- Iteration      1(   7)  ---------------------------------------


    POTLOK:  cpu time      0.0442: real time      0.0442
    SETDIJ:  cpu time      0.1893: real time      0.1893
    TRIAL :  cpu time     68.9419: real time     68.9496
    CORREC:  cpu time     68.9307: real time     68.9366
    CHARGE:  cpu time      0.0584: real time      0.0584
    --------------------------------------------
      LOOP:  cpu time    138.1707: real time    138.1932

 eigenvalue-minimisations  :     0
 total energy-change (2. order) :-0.1132860E+03  (-0.9217195E+01)
 number of electron     457.9999272 magnetization 
 augmentation part      155.1231031 magnetization 

 DIPCOR: dipole corrections for dipol
 direction  3 min pos     1,
 dipolmoment           0.000000      0.000000      0.250289 electrons x Angstroem
 Tr[quadrupol]     -6361.998924

 energy correction for charged system         0.000000 eV
 dipol+quadrupol energy correction           -0.003729 eV
 added-field ion interaction         -2.023351 eV  (added to PSCEN)


 Free energy of the ion-electron system (eV)
  ---------------------------------------------------
  alpha Z        PSCENC =       905.20939219
  Ewald energy   TEWEN  =    137168.79583274
  -Hartree energ DENC   =   -175310.15153802
  -exchange      EXHF   =      1642.91682572
  -V(xc)+E(xc)   XCENC  =      1415.82520680
  PAW double counting   =     36721.78064199   -40342.85678489
  entropy T*S    EENTRO =        -0.00000000
  eigenvalues    EBANDS =    -10772.07158489
  atomic energy  EATOM  =     48107.52088990
  ---------------------------------------------------
  free energy    TOTEN  =      -463.03111845 eV

  energy without entropy =     -463.03111845  energy(sigma->0) =     -463.03111845
  exchange ACFDT corr.  =         0.00000000  see jH, gK, PRB 81, 115126


--------------------------------------------------------------------------------------------------------




--------------------------------------- Iteration      1(   8)  ---------------------------------------


    POTLOK:  cpu time      0.0437: real time      0.0437
    SETDIJ:  cpu time      0.1890: real time      0.1890
    TRIAL :  cpu time     68.9234: real time     68.9303
    CORREC:  cpu time     68.9268: real time     68.9334
    CHARGE:  cpu time      0.0569: real time      0.0569
    --------------------------------------------
      LOOP:  cpu time    138.1546: real time    138.1683

 eigenvalue-minimisations  :     0
 total energy-change (2. order) :-0.9269436E+01  (-0.6089070E+01)
 number of electron     457.9999252 magnetization 
 augmentation part      155.1871105 magnetization 

 DIPCOR: dipole corrections for dipol
 direction  3 min pos     1,
 dipolmoment           0.000000      0.000000      0.146039 electrons x Angstroem
 Tr[quadrupol]     -6362.872356

 energy correction for charged system         0.000000 eV
 dipol+quadrupol energy correction           -0.001270 eV
 added-field ion interaction         -1.180582 eV  (added to PSCEN)


 Free energy of the ion-electron system (eV)
  ---------------------------------------------------
  alpha Z        PSCENC =       906.24284027
  Ewald energy   TEWEN  =    137168.79583274
  -Hartree energ DENC   =   -175341.97529491
  -exchange      EXHF   =      1635.53608864
  -V(xc)+E(xc)   XCENC  =      1408.33394131
  PAW double counting   =     36639.68422561   -40201.88470889
  entropy T*S    EENTRO =        -0.00000000
  eigenvalues    EBANDS =    -10794.55436907
  atomic energy  EATOM  =     48107.52088990
  ---------------------------------------------------
  free energy    TOTEN  =      -472.30055439 eV

  energy without entropy =     -472.30055439  energy(sigma->0) =     -472.30055439
  exchange ACFDT corr.  =        -0.00000000  see jH, gK, PRB 81, 115126


--------------------------------------------------------------------------------------------------------




--------------------------------------- Iteration      1(   9)  ---------------------------------------


    POTLOK:  cpu time      0.0414: real time      0.0414
    SETDIJ:  cpu time      0.1891: real time      0.1891
    TRIAL :  cpu time     68.9140: real time     68.9205
    CORREC:  cpu time     68.9395: real time     68.9466
    CHARGE:  cpu time      0.0546: real time      0.0546
    --------------------------------------------
      LOOP:  cpu time    138.1462: real time    138.1672

 eigenvalue-minimisations  :     0
 total energy-change (2. order) :-0.5970271E+01  (-0.3090250E+01)
 number of electron     457.9999249 magnetization 
 augmentation part      155.1492416 magnetization 

 DIPCOR: dipole corrections for dipol
 direction  3 min pos     1,
 dipolmoment           0.000000      0.000000      0.093027 electrons x Angstroem
 Tr[quadrupol]     -6356.114290

 energy correction for charged system         0.000000 eV
 dipol+quadrupol energy correction           -0.000515 eV
 added-field ion interaction         -0.752035 eV  (added to PSCEN)


 Free energy of the ion-electron system (eV)
  ---------------------------------------------------
  alpha Z        PSCENC =       907.08686967
  Ewald energy   TEWEN  =    137168.79583274
  -Hartree energ DENC   =   -175246.40100984
  -exchange      EXHF   =      1632.16719789
  -V(xc)+E(xc)   XCENC  =      1406.66449961
  PAW double counting   =     36527.07467356   -40125.30460663
  entropy T*S    EENTRO =        -0.00000000
  eigenvalues    EBANDS =    -10855.87517202
  atomic energy  EATOM  =     48107.52088990
  ---------------------------------------------------
  free energy    TOTEN  =      -478.27082511 eV

  energy without entropy =     -478.27082511  energy(sigma->0) =     -478.27082511
  exchange ACFDT corr.  =        -0.00000000  see jH, gK, PRB 81, 115126


--------------------------------------------------------------------------------------------------------




--------------------------------------- Iteration      1(  10)  ---------------------------------------


    POTLOK:  cpu time      0.0421: real time      0.0421
    SETDIJ:  cpu time      0.1894: real time      0.1894
    TRIAL :  cpu time     68.8875: real time     68.8941
    CORREC:  cpu time     68.8674: real time     68.8746
    CHARGE:  cpu time      0.0568: real time      0.0568
    --------------------------------------------
      LOOP:  cpu time    138.0620: real time    138.0759

 eigenvalue-minimisations  :     0
 total energy-change (2. order) :-0.3114040E+01  (-0.1099517E+01)
 number of electron     457.9999256 magnetization 
 augmentation part      155.0085704 magnetization 

 DIPCOR: dipole corrections for dipol
 direction  3 min pos     1,
 dipolmoment           0.000000      0.000000      0.119045 electrons x Angstroem
 Tr[quadrupol]     -6353.158033

 energy correction for charged system         0.000000 eV
 dipol+quadrupol energy correction           -0.000844 eV
 added-field ion interaction         -0.962368 eV  (added to PSCEN)


 Free energy of the ion-electron system (eV)
  ---------------------------------------------------
  alpha Z        PSCENC =       907.19833878
  Ewald energy   TEWEN  =    137168.79583274
  -Hartree energ DENC   =   -175040.54287667
  -exchange      EXHF   =      1628.21684471
  -V(xc)+E(xc)   XCENC  =      1404.40435563
  PAW double counting   =     36364.90774744   -39972.63389204
  entropy T*S    EENTRO =        -0.00000000
  eigenvalues    EBANDS =    -11049.25210558
  atomic energy  EATOM  =     48107.52088990
  ---------------------------------------------------
  free energy    TOTEN  =      -481.38486509 eV

  energy without entropy =     -481.38486509  energy(sigma->0) =     -481.38486509
  exchange ACFDT corr.  =        -0.00000000  see jH, gK, PRB 81, 115126


--------------------------------------------------------------------------------------------------------




--------------------------------------- Iteration      1(  11)  ---------------------------------------


    POTLOK:  cpu time      0.0427: real time      0.0427
    SETDIJ:  cpu time      0.1892: real time      0.1892
    TRIAL :  cpu time     68.9350: real time     68.9410
    CORREC:  cpu time     68.9551: real time     68.9610
    CHARGE:  cpu time      0.0568: real time      0.0569
    --------------------------------------------
      LOOP:  cpu time    138.1851: real time    138.2057

 eigenvalue-minimisations  :     0
 total energy-change (2. order) :-0.1104209E+01  (-0.4380337E+00)
 number of electron     457.9999263 magnetization 
 augmentation part      155.1118006 magnetization 

 DIPCOR: dipole corrections for dipol
 direction  3 min pos     1,
 dipolmoment           0.000000      0.000000      0.137171 electrons x Angstroem
 Tr[quadrupol]     -6353.604105

 energy correction for charged system         0.000000 eV
 dipol+quadrupol energy correction           -0.001120 eV
 added-field ion interaction         -1.108899 eV  (added to PSCEN)


 Free energy of the ion-electron system (eV)
  ---------------------------------------------------
  alpha Z        PSCENC =       907.04457066
  Ewald energy   TEWEN  =    137168.79583274
  -Hartree energ DENC   =   -174923.35908867
  -exchange      EXHF   =      1626.10104502
  -V(xc)+E(xc)   XCENC  =      1403.05254887
  PAW double counting   =     36271.76600154   -39867.84066880
  entropy T*S    EENTRO =        -0.00000000
  eigenvalues    EBANDS =    -11175.57020507
  atomic energy  EATOM  =     48107.52088990
  ---------------------------------------------------
  free energy    TOTEN  =      -482.48907380 eV

  energy without entropy =     -482.48907380  energy(sigma->0) =     -482.48907380
  exchange ACFDT corr.  =        -0.00000000  see jH, gK, PRB 81, 115126


--------------------------------------------------------------------------------------------------------




--------------------------------------- Iteration      1(  12)  ---------------------------------------


    POTLOK:  cpu time      0.0423: real time      0.0423
    SETDIJ:  cpu time      0.1891: real time      0.1892
    TRIAL :  cpu time     68.8598: real time     68.8667
    CORREC:  cpu time     68.9543: real time     68.9603
    CHARGE:  cpu time      0.0584: real time      0.0584
    --------------------------------------------
      LOOP:  cpu time    138.1184: real time    138.1317

 eigenvalue-minimisations  :     0
 total energy-change (2. order) :-0.4379767E+00  (-0.1840869E+00)
 number of electron     457.9999266 magnetization 
 augmentation part      155.3089459 magnetization 

 DIPCOR: dipole corrections for dipol
 direction  3 min pos     1,
 dipolmoment           0.000000      0.000000      0.150039 electrons x Angstroem
 Tr[quadrupol]     -6354.180877

 energy correction for charged system         0.000000 eV
 dipol+quadrupol energy correction           -0.001340 eV
 added-field ion interaction         -1.212925 eV  (added to PSCEN)


 Free energy of the ion-electron system (eV)
  ---------------------------------------------------
  alpha Z        PSCENC =       906.85757550
  Ewald energy   TEWEN  =    137168.79583274
  -Hartree energ DENC   =   -174915.21395763
  -exchange      EXHF   =      1625.93997656
[...]
    277       8.6042      0.00000
    278       8.6125      0.00000
    279       8.7119      0.00000
    280       8.8223      0.00000
    281       9.0728      0.00000
    282       9.1094      0.00000
    283       9.1115      0.00000
    284       9.1143      0.00000
    285       9.1171      0.00000
    286       9.1214      0.00000
    287       9.1293      0.00000
    288       9.1558      0.00000
    289       9.1581      0.00000
    290       9.1967      0.00000
    291       9.1996      0.00000
    292       9.2028      0.00000
    293       9.4065      0.00000
    294       9.4268      0.00000
    295       9.4508      0.00000
    296       9.4732      0.00000
    297       9.5251      0.00000
    298       9.6009      0.00000
    299       9.6376      0.00000
    300       9.7000      0.00000
    301       9.8403      0.00000
    302       9.8590      0.00000
    303       9.9115      0.00000
    304       9.9148      0.00000
    305       9.9263      0.00000
    306       9.9656      0.00000
    307       9.9723      0.00000
    308       9.9930      0.00000
    309      10.0818      0.00000
    310      10.1363      0.00000
    311      10.3609      0.00000
    312      10.7222      0.00000
    313      10.7606      0.00000
    314      10.8164      0.00000
    315      10.9356      0.00000
    316      10.9508      0.00000
    317      11.4477      0.00000
    318      11.4685      0.00000
    319      11.6190      0.00000
    320      11.6340      0.00000


--------------------------------------------------------------------------------------------------------


 soft charge-density along one line, spin component           1
         0         1         2         3         4         5         6         7         8         9
 total charge-density along one line

 pseudopotential strength for first ion, spin component:           1
  9.963  13.247   0.000   0.035   0.000  -0.000  -0.105  -0.000
 13.247  17.613   0.000   0.046   0.000  -0.000  -0.139  -0.000
  0.000   0.000  -4.193  -0.000  -0.000   8.186   0.000   0.000
  0.035   0.046  -0.000  -4.228   0.000   0.000   8.246  -0.000
  0.000   0.000  -0.000   0.000  -4.193   0.000  -0.000   8.186
 -0.000  -0.000   8.186   0.000   0.000 -18.095  -0.000  -0.000
 -0.105  -0.139   0.000   8.246  -0.000  -0.000 -18.200   0.000
 -0.000  -0.000   0.000  -0.000   8.186  -0.000   0.000 -18.095
 total augmentation occupancy for first ion, spin component:           1
  7.932  -3.620   0.000   2.012   0.000   0.000   0.385   0.000
 -3.620   2.000   0.000  -1.544   0.000   0.000  -0.235  -0.000
  0.000   0.000   0.819   0.000   0.000   0.066  -0.000   0.000
  2.012  -1.544   0.000   2.264   0.000   0.000   0.219   0.000
  0.000   0.000   0.000   0.000   0.819   0.000  -0.000   0.066
  0.000   0.000   0.066   0.000   0.000   0.005   0.000   0.000
  0.385  -0.235  -0.000   0.219  -0.000   0.000   0.030   0.000
  0.000  -0.000   0.000   0.000   0.066   0.000   0.000   0.005


------------------------ aborting loop because EDIFF is reached ----------------------------------------


    FORLOC:  cpu time      0.0022: real time      0.0022
    FORHF :  cpu time     68.9063: real time     68.9127
    FORNL :  cpu time      0.3269: real time      0.3271
    STRESS:  cpu time      0.9311: real time      0.9315
    FORCOR:  cpu time      0.0402: real time      0.0402
    OFIELD:  cpu time      0.0001: real time      0.0001
    FORVDW:  cpu time      7.9349: real time      7.9590

  FORCE on cell =-STRESS in cart. coord.  units (eV):
  Direction    XX          YY          ZZ          XY          YZ          ZX
  --------------------------------------------------------------------------------------
  Alpha Z   907.96410   907.96410   907.96410
  Ewald  157669.57812157669.57812************     0.00000     0.00000    -0.00000
  Hartree168172.05407168172.05407************    -0.00000    -0.00000    -0.00000
  E(xc)   -1888.00053 -1888.00053 -1890.37621    -0.00000     0.00000     0.00000
  Local  ************************335410.34636    -0.00000    -0.00000    -0.00000
  n-local  -732.91137  -733.32555  -765.67068     0.00001     0.00000     0.00000
  augment   833.27239   833.27239   822.07619     0.00000    -0.00000    -0.00000
  Kinetic  7508.32380  7510.03215  7531.68520    -0.00000    -0.00000    -0.00000
  Fock    -2515.66277 -2515.75121 -2514.99309    -0.00000    -0.00000     0.00000
  vdW        -8.80080    -8.80080    -6.09716     0.00000    -0.00000     0.00000
  -------------------------------------------------------------------------------------
  Total     -50.20799   -50.20799   -20.40108     0.00000     0.00000    -0.00000
  in kB     -52.92871   -52.92871   -21.50659     0.00000     0.00000    -0.00000
  external pressure =      -42.45 kB  Pullay stress =        0.00 kB


 VOLUME and BASIS-vectors are now :
 -----------------------------------------------------------------------------
  energy-cutoff  :      600.00
  volume of cell :     1519.82
      direct lattice vectors                 reciprocal lattice vectors
     8.440984654  0.000000000  0.000000000     0.118469591  0.000000000  0.000000000
     0.000000000  8.440984654  0.000000000     0.000000000  0.118469591  0.000000000
     0.000000000  0.000000000 21.330738491     0.000000000  0.000000000  0.046880702

  length of vectors
     8.440984654  8.440984654 21.330738491     0.118469591  0.118469591  0.046880702


 FORCES acting on ions:
    Electron-Ion                     Ewald-Force                    Non-Local-Force
 -----------------------------------------------------------------------------------------------
   0.121E-12 0.148E-12 -.839E+03   0.191E-13 0.622E-14 0.813E+03   0.000E+00 -.331E-23 0.259E+02
   0.464E-12 0.118E-11 -.145E+04   -.999E-14 0.666E-15 0.151E+04   0.000E+00 0.000E+00 -.532E+02
   -.404E-13 -.130E+00 0.208E+04   0.560E-13 0.130E+00 -.207E+04   -.331E-23 0.429E-04 -.677E+01
   0.130E+00 0.673E-13 0.208E+04   -.130E+00 0.671E-13 -.207E+04   -.429E-04 0.000E+00 -.677E+01
   -.473E-13 -.283E-12 0.713E+03   -.150E-10 0.150E-10 -.714E+03   0.000E+00 -.529E-22 0.450E+00
   0.480E+00 -.480E+00 0.714E+03   -.475E+00 0.475E+00 -.715E+03   -.266E-02 0.266E-02 0.473E+00
   -.447E-13 -.287E+01 -.642E+03   0.157E-11 0.285E+01 0.643E+03   0.000E+00 0.176E-01 -.110E+00
   0.287E+01 0.175E-12 -.642E+03   -.285E+01 -.151E-11 0.643E+03   -.176E-01 0.265E-22 -.110E+00
   -.271E-13 -.566E-12 -.200E+04   0.444E-12 -.416E-12 0.200E+04   0.000E+00 0.000E+00 0.572E+01
   0.182E+02 -.182E+02 -.198E+04   -.183E+02 0.183E+02 0.198E+04   0.772E-01 -.772E-01 0.581E+01
   -.305E-13 0.130E+00 0.208E+04   -.277E-12 -.130E+00 -.207E+04   0.000E+00 -.429E-04 -.677E+01
   0.125E+00 0.768E-12 0.208E+04   -.123E+00 0.131E-10 -.207E+04   -.144E-02 -.265E-22 -.677E+01
   -.447E-13 0.754E-12 0.714E+03   -.165E-10 0.000E+00 -.715E+03   0.000E+00 -.165E-23 0.413E+00
   0.480E+00 0.480E+00 0.714E+03   -.475E+00 -.475E+00 -.715E+03   -.266E-02 -.266E-02 0.473E+00
   -.369E-13 0.287E+01 -.642E+03   0.304E-11 -.285E+01 0.643E+03   -.106E-21 -.176E-01 -.110E+00
   0.418E+01 0.956E-12 -.635E+03   -.411E+01 0.178E-14 0.636E+03   -.726E-01 0.000E+00 -.223E+00
   -.364E-13 0.795E-12 -.199E+04   -.355E-13 -.995E-13 0.198E+04   0.000E+00 0.000E+00 0.573E+01
   0.182E+02 0.182E+02 -.198E+04   -.183E+02 -.183E+02 0.198E+04   0.772E-01 0.772E-01 0.581E+01
   0.873E-12 -.125E+00 0.208E+04   -.129E-10 0.123E+00 -.207E+04   0.000E+00 0.144E-02 -.677E+01
   -.130E+00 -.269E-13 0.208E+04   0.130E+00 0.471E-13 -.207E+04   0.429E-04 0.000E+00 -.677E+01
   0.822E-12 0.620E-12 0.714E+03   0.145E-11 0.150E-10 -.715E+03   0.000E+00 0.000E+00 0.413E+00
   -.480E+00 -.480E+00 0.714E+03   0.475E+00 0.475E+00 -.715E+03   0.266E-02 0.266E-02 0.473E+00
   0.815E-12 -.418E+01 -.635E+03   -.141E-11 0.411E+01 0.636E+03   0.000E+00 0.726E-01 -.223E+00
   -.287E+01 0.162E-12 -.642E+03   0.285E+01 -.156E-11 0.643E+03   0.176E-01 0.529E-22 -.110E+00
   0.922E-12 -.162E-12 -.199E+04   0.782E-13 -.355E-14 0.198E+04   0.265E-22 0.000E+00 0.573E+01
   -.182E+02 -.182E+02 -.198E+04   0.183E+02 0.183E+02 0.198E+04   -.772E-01 -.772E-01 0.581E+01
   0.866E-12 0.125E+00 0.208E+04   -.131E-10 -.123E+00 -.207E+04   0.000E+00 -.144E-02 -.677E+01
   -.125E+00 0.283E-12 0.208E+04   0.123E+00 0.131E-10 -.207E+04   0.144E-02 -.265E-22 -.677E+01
   0.858E-12 0.202E-11 0.715E+03   -.782E-13 0.355E-14 -.715E+03   -.662E-23 -.993E-23 0.540E+00
   -.480E+00 0.480E+00 0.714E+03   0.475E+00 -.475E+00 -.715E+03   0.266E-02 -.266E-02 0.473E+00
   0.801E-12 0.418E+01 -.635E+03   -.284E-13 -.411E+01 0.636E+03   0.132E-22 -.726E-01 -.223E+00
   -.418E+01 -.183E-11 -.635E+03   0.411E+01 0.000E+00 0.636E+03   0.726E-01 -.265E-22 -.223E+00
   0.941E-12 0.204E-11 -.191E+04   -.426E-13 -.391E-13 0.191E+04   -.529E-22 0.000E+00 0.384E+01
   -.182E+02 0.182E+02 -.198E+04   0.183E+02 -.183E+02 0.198E+04   -.772E-01 0.772E-01 0.581E+01
   -.605E-13 -.410E+00 0.535E+03   0.409E-13 0.404E+00 -.535E+03   0.000E+00 0.725E-02 -.102E+00
   0.410E+00 0.175E-12 0.535E+03   -.404E+00 0.391E-13 -.535E+03   -.725E-02 0.662E-23 -.102E+00
   -.600E-13 -.135E-13 0.156E+04   0.853E-11 -.844E-11 -.156E+04   -.529E-22 -.132E-22 0.303E+01
   0.950E-01 -.950E-01 0.156E+04   -.941E-01 0.941E-01 -.156E+04   -.106E-02 0.106E-02 0.303E+01
   -.791E-13 -.737E+01 -.152E+04   -.871E-12 0.731E+01 0.153E+04   0.000E+00 0.522E-01 -.445E+01
   0.737E+01 -.155E-12 -.152E+04   -.731E+01 0.881E-12 0.153E+04   -.522E-01 -.265E-22 -.445E+01
   -.617E-13 -.175E-12 -.478E+03   -.853E-13 0.639E-13 0.478E+03   0.331E-23 0.000E+00 0.256E+00
   0.260E+01 -.260E+01 -.473E+03   -.258E+01 0.258E+01 0.473E+03   -.774E-02 0.774E-02 0.316E+00
   -.458E-13 0.410E+00 0.535E+03   0.142E-13 -.404E+00 -.535E+03   0.662E-23 -.725E-02 -.102E+00
   0.385E+00 0.754E-12 0.536E+03   -.412E+00 -.764E-11 -.535E+03   0.321E-01 -.132E-22 -.121E+00
   -.597E-13 0.492E-12 0.156E+04   0.845E-11 -.796E-12 -.156E+04   0.662E-23 0.000E+00 0.303E+01
   0.950E-01 0.950E-01 0.156E+04   -.941E-01 -.941E-01 -.156E+04   -.106E-02 -.106E-02 0.303E+01
   -.491E-13 0.737E+01 -.152E+04   -.774E-12 -.731E+01 0.153E+04   0.000E+00 -.522E-01 -.445E+01
   0.238E+02 0.109E-11 -.149E+04   -.235E+02 0.810E-11 0.150E+04   -.280E+00 -.132E-22 -.439E+01
   -.567E-13 0.175E-12 -.473E+03   -.741E-11 0.711E-14 0.473E+03   0.000E+00 0.000E+00 0.273E+00
   0.260E+01 0.260E+01 -.473E+03   -.258E+01 -.258E+01 0.473E+03   -.774E-02 -.774E-02 0.316E+00
   0.308E-12 -.385E+00 0.536E+03   0.764E-11 0.412E+00 -.535E+03   -.265E-22 -.321E-01 -.121E+00
   -.410E+00 0.175E-12 0.535E+03   0.404E+00 0.142E-13 -.535E+03   0.725E-02 0.662E-23 -.102E+00
   0.348E-12 -.909E-12 0.156E+04   0.845E-12 -.846E-11 -.156E+04   0.827E-24 0.000E+00 0.303E+01
   -.950E-01 -.950E-01 0.156E+04   0.941E-01 0.941E-01 -.156E+04   0.106E-02 0.106E-02 0.303E+01
   0.364E-12 -.238E+02 -.149E+04   -.816E-11 0.235E+02 0.150E+04   0.662E-23 0.280E+00 -.439E+01
   -.737E+01 -.209E-12 -.152E+04   0.731E+01 0.924E-12 0.153E+04   0.522E-01 0.000E+00 -.445E+01
   0.279E-12 0.539E-12 -.473E+03   -.711E-14 0.738E-11 0.473E+03   -.496E-23 0.000E+00 0.273E+00
   -.260E+01 -.260E+01 -.473E+03   0.258E+01 0.258E+01 0.473E+03   0.774E-02 0.774E-02 0.316E+00
   0.295E-12 0.385E+00 0.536E+03   0.763E-11 -.412E+00 -.535E+03   -.265E-22 0.321E-01 -.121E+00
   -.385E+00 0.174E-11 0.536E+03   0.412E+00 -.769E-11 -.535E+03   -.321E-01 -.265E-22 -.121E+00
   0.328E-12 0.869E-12 0.156E+04   0.824E-12 -.838E-12 -.156E+04   0.662E-23 0.000E+00 0.303E+01
   -.950E-01 0.950E-01 0.156E+04   0.941E-01 -.941E-01 -.156E+04   0.106E-02 -.106E-02 0.303E+01
   0.350E-12 0.238E+02 -.149E+04   -.820E-11 -.235E+02 0.150E+04   -.265E-22 -.280E+00 -.439E+01
   -.238E+02 -.145E-11 -.149E+04   0.235E+02 0.819E-11 0.150E+04   0.280E+00 0.000E+00 -.439E+01
   0.276E-12 0.418E-12 -.473E+03   -.497E-13 0.426E-13 0.473E+03   0.000E+00 0.000E+00 -.158E+00
   -.260E+01 0.260E+01 -.473E+03   0.258E+01 -.258E+01 0.473E+03   0.774E-02 -.774E-02 0.316E+00
 -----------------------------------------------------------------------------------------------
   0.260E-10 0.263E-10 0.550E+02   0.435E-13 -.120E-12 0.273E-11   0.173E-17 0.572E-16 -.450E+02


 POSITION                                       TOTAL-FORCE (eV/Angst)
 -----------------------------------------------------------------------------------
      4.22049      4.22049     16.30814        -0.000000      0.000000      2.078424
      4.22049      4.22049     17.45496        -0.000000      0.000000     -2.040743
      0.00000      6.33074      7.50000        -0.000000     -0.000058      0.586837
      2.11025      0.00000      7.50000         0.000058      0.000000      0.586837
      0.00000      0.00000      9.61025        -0.000000      0.000000      0.050879
      2.11025      6.33074      9.61025         0.001646     -0.001646      0.052840
      0.00000      6.33023     11.73368        -0.000000     -0.001251      0.006545
      2.11076      0.00000     11.73368         0.001251      0.000000      0.006545
      0.00000      0.00000     13.83822        -0.000000      0.000000     -0.202326
      2.10905      6.33193     13.83447        -0.008011      0.008011     -0.215031
      0.00000      2.11025      7.50000        -0.000000      0.000058      0.586837
      2.11025      4.22049      7.50000         0.000482      0.000000      0.587056
      0.00000      4.22049      9.61025        -0.000000      0.000000      0.061229
      2.11025      2.11025      9.61025         0.001646      0.001646      0.052840
      0.00000      2.11076     11.73368        -0.000000      0.001251      0.006545
      2.11344      4.22049     11.73659        -0.003820      0.000000      0.016336
      0.00000      4.22049     13.83544        -0.000000      0.000000     -0.207196
      2.10905      2.10905     13.83447        -0.008011     -0.008011     -0.215031
      4.22049      6.33074      7.50000        -0.000000     -0.000482      0.587056
      6.33074      0.00000      7.50000        -0.000058      0.000000      0.586837
      4.22049      0.00000      9.61025        -0.000000      0.000000      0.061229
      6.33074      6.33074      9.61025        -0.001646     -0.001646      0.052840
      4.22049      6.32754     11.73659        -0.000000      0.003820      0.016336
      6.33023      0.00000     11.73368        -0.001251      0.000000      0.006545
      4.22049      0.00000     13.83544        -0.000000      0.000000     -0.207196
      6.33193      6.33193     13.83447         0.008011      0.008011     -0.215031
      4.22049      2.11025      7.50000        -0.000000      0.000482      0.587056
      6.33074      4.22049      7.50000        -0.000482      0.000000      0.587056
      4.22049      4.22049      9.61025        -0.000000      0.000000      0.064389
      6.33074      2.11025      9.61025        -0.001646      0.001646      0.052840
      4.22049      2.11344     11.73659        -0.000000     -0.003820      0.016336
      6.32754      4.22049     11.73659         0.003820      0.000000      0.016336
      4.22049      4.22049     13.87814        -0.000000      0.000000     -0.202737
      6.33193      2.10905     13.83447         0.008011     -0.008011     -0.215031
      0.00000      6.33074      9.61025        -0.000000      0.002568      0.061776
      2.11025      0.00000      9.61025        -0.002568      0.000000      0.061776
      0.00000      0.00000      7.50000        -0.000000      0.000000     -0.413383
      2.11025      6.33074      7.50000        -0.000382      0.000382     -0.413179
      0.00000      6.33258     13.88587        -0.000000     -0.000298     -0.126743
      2.10840      0.00000     13.88587         0.000298      0.000000     -0.126743
      0.00000      0.00000     11.72785        -0.000000      0.000000      0.025401
      2.10979      6.33120     11.72890         0.002303     -0.002303      0.020068
      0.00000      2.11025      9.61025        -0.000000     -0.002568      0.061776
      2.11025      4.22049      9.61025         0.010059      0.000000      0.069673
      0.00000      4.22049      7.50000        -0.000000      0.000000     -0.413438
      2.11025      2.11025      7.50000        -0.000382     -0.000382     -0.413179
      0.00000      2.10840     13.88587        -0.000000      0.000298     -0.126743
      2.10031      4.22049     13.88381        -0.009042      0.000000     -0.114907
      0.00000      4.22049     11.72684        -0.000000      0.000000      0.022036
      2.10979      2.10979     11.72890         0.002303      0.002303      0.020068
      4.22049      6.33074      9.61025        -0.000000     -0.010059      0.069673
      6.33074      0.00000      9.61025         0.002568      0.000000      0.061776
      4.22049      0.00000      7.50000        -0.000000      0.000000     -0.413438
      6.33074      6.33074      7.50000         0.000382      0.000382     -0.413179
      4.22049      6.34068     13.88381        -0.000000      0.009042     -0.114907
      6.33258      0.00000     13.88587        -0.000298      0.000000     -0.126743
      4.22049      0.00000     11.72684        -0.000000      0.000000      0.022036
      6.33120      6.33120     11.72890        -0.002303     -0.002303      0.020068
      4.22049      2.11025      9.61025        -0.000000      0.010059      0.069673
      6.33074      4.22049      9.61025        -0.010059      0.000000      0.069673
      4.22049      4.22049      7.50000        -0.000000      0.000000     -0.413889
      6.33074      2.11025      7.50000         0.000382     -0.000382     -0.413179
      4.22049      2.10031     13.88381        -0.000000     -0.009042     -0.114907
      6.34068      4.22049     13.88381         0.009042      0.000000     -0.114907
      4.22049      4.22049     11.73684        -0.000000      0.000000      0.003635
      6.33120      2.10979     11.72890        -0.002303      0.002303      0.020068
 -----------------------------------------------------------------------------------
    total drift:                                0.000000      0.000000     -0.021782


--------------------------------------------------------------------------------------------------------



  FREE ENERGIE OF THE ION-ELECTRON SYSTEM (eV)
  ---------------------------------------------------
  free  energy   TOTEN  =      -490.98036396 eV

  energy  without entropy=     -490.98036396  energy(sigma->0) =     -490.98036396



--------------------------------------------------------------------------------------------------------


    POTLOK:  cpu time      0.3861: real time      0.3861


--------------------------------------------------------------------------------------------------------


     LOOP+:  cpu time   3703.9766: real time   3704.7361
    4ORBIT:  cpu time      0.0000: real time      0.0000

 total amount of memory used by VASP MPI-rank0   185307. kBytes
=======================================================================

   base      :      30000. kBytes
   nonl-proj :      14893. kBytes
   fftplans  :       3932. kBytes
   grid      :       3944. kBytes
   one-center:         73. kBytes
   HF        :        101. kBytes
   nonlr-proj:      15027. kBytes
   wavefun   :       4746. kBytes
   fock_wrk  :     112591. kBytes

  
  
 General timing and accounting informations for this job:
 ========================================================
  
                  Total CPU time used (sec):     3733.265
                            User time (sec):     3723.370
                          System time (sec):        9.895
                         Elapsed time (sec):     3745.863
  
                   Maximum memory used (kb):      411564.
                   Average memory used (kb):          N/A
  
                          Minor page faults:       292351
                          Major page faults:           51
                 Voluntary context switches:        14083
