 vasp.6.3.0 20Jan22 (build Apr  1 2022 16:44:48) complex                         
 executed on        HPECrayEX_GCC date 2022.09.30  22:13:08
 running  512 mpi-ranks, with    1 threads/rank
 distrk:  each k-point on  256 cores,    2 groups
 distr:  one band on NCORE=   4 cores,   64 groups


--------------------------------------------------------------------------------------------------------


 INCAR:
   SYSTEM = MgO-rocksalt
   ISMEAR = 0
   SIGMA = 0.05
   EDIFF = 1E-5
   ALGO = ALL
   ISTART = 0
   IBRION = -1
   NSW = 0
   ISYM = 2
   ISIF = 2
   DIPOL = 0.5 0.5 0.5
   IDIPOL = 3
   LDIPOL = .TRUE.
   GGA = PE
   IVDW = 1
   VDW_C6 = 0.63 0.70
   VDW_R0 = 1.243 1.342
   ENCUT = 600
   PREC = Normal
   LASPH = .TRUE.
   LREAL = .FALSE.
   ISPIN = 1
   NELM = 200
   NELMIN = 8
   NCORE = 4
   KPAR = 2
   LWAVE = .FALSE.
   LCHARG = .FALSE.

 POTCAR:    PAW_PBE Mg_pv 13Apr2007               
 POTCAR:    PAW_PBE O 08Apr2002                   
 POTCAR:    PAW_PBE Mg_pv 13Apr2007               
   SHA256 =  f474ac0dd33840b9ae76c01d57fea79fdf77cdfbb07d5ade72c65f83c709b62b Mg_pv/POTCAR          
   COPYR  = (c) Copyright 13Apr2007 Georg Kresse                                                    
   COPYR  = This file is part of the software VASP. Any use, copying, and all other rights are regul
   COPYR  = If you do not have a valid VASP license, you may not use, copy or distribute this file. 
   VRHFIN =Mg: p6s2                                                                                 
   LEXCH  = PE                                                                                      
   EATOM  =  1056.7344 eV,   77.6678 Ry                                                             
                                                                                                    
   TITEL  = PAW_PBE Mg_pv 13Apr2007                                                                 
   LULTRA =        F    use ultrasoft PP ?                                                          
   IUNSCR =        1    unscreen: 0-lin 1-nonlin 2-no                                               
   RPACOR =    1.500    partial core radius                                                         
   POMASS =   24.305; ZVAL   =    8.000    mass and valenz                                          
   RCORE  =    2.000    outmost cutoff radius                                                       
   RWIGS  =    2.000; RWIGS  =    1.058    wigner-seitz radius (au A)                               
   ENMAX  =  403.929; ENMIN  =  302.947 eV                                                          
   RCLOC  =    1.506    cutoff for local pot                                                        
   LCOR   =        T    correct aug charges                                                         
   LPAW   =        T    paw PP                                                                      
   EAUG   =  758.780                                                                                
   DEXC   =    0.000                                                                                
   RMAX   =    2.045    core radius for proj-oper                                                   
   RAUG   =    1.300    factor for augmentation sphere                                              
   RDEP   =    2.025    radius for radial grids                                                     
   RDEPT  =    1.557    core radius for aug-charge                                                  
                                                                                                    
   Atomic configuration                                                                             
    5 entries                                                                                       
     n  l   j            E        occ.                                                              
     1  0  0.50     -1259.6230   2.0000                                                             
     2  0  0.50       -79.8442   2.0000                                                             
     2  1  1.50       -46.6121   6.0000                                                             
     3  0  0.50        -4.7055   2.0000                                                             
     3  2  1.50        -1.3606   0.0000                                                             
   Description                                                                                      
     l       E           TYP  RCUT    TYP  RCUT                                                     
     1    -46.6121073     23  1.600                                                                 
     1      2.7211652     23  1.600                                                                 
     0     -4.7054661     23  2.000                                                                 
     0     61.2262170     23  2.000                                                                 
     2     -1.3605826     23  2.000                                                                 
  local pseudopotential read in
  partial core-charges read in
  partial kinetic energy density read in
  atomic valenz-charges read in
  non local Contribution for L=           1  read in
    real space projection operators read in
  non local Contribution for L=           1  read in
    real space projection operators read in
  non local Contribution for L=           0  read in
    real space projection operators read in
  non local Contribution for L=           0  read in
    real space projection operators read in
  non local Contribution for L=           2  read in
    real space projection operators read in
    PAW grid and wavefunctions read in

   number of l-projection  operators is LMAX  =           5
   number of lm-projection operators is LMMAX =          13

 POTCAR:    PAW_PBE O 08Apr2002                   
   SHA256 =  818f92134a0a090dccd8ba1447fa70422a3b330e708bb4f08108d8ae51209ddf O/POTCAR              
   COPYR  = (c) Copyright 08Apr2002 Georg Kresse                                                    
   COPYR  = This file is part of the software VASP. Any use, copying, and all other rights are regul
   COPYR  = If you do not have a valid VASP license, you may not use, copy or distribute this file. 
   VRHFIN =O: s2p4                                                                                  
   LEXCH  = PE                                                                                      
   EATOM  =   432.3788 eV,   31.7789 Ry                                                             
                                                                                                    
   TITEL  = PAW_PBE O 08Apr2002                                                                     
   LULTRA =        F    use ultrasoft PP ?                                                          
   IUNSCR =        1    unscreen: 0-lin 1-nonlin 2-no                                               
   RPACOR =    1.200    partial core radius                                                         
   POMASS =   16.000; ZVAL   =    6.000    mass and valenz                                          
   RCORE  =    1.520    outmost cutoff radius                                                       
   RWIGS  =    1.550; RWIGS  =    0.820    wigner-seitz radius (au A)                               
   ENMAX  =  400.000; ENMIN  =  300.000 eV                                                          
   ICORE  =        2    local potential                                                             
   LCOR   =        T    correct aug charges                                                         
   LPAW   =        T    paw PP                                                                      
   EAUG   =  605.392                                                                                
   DEXC   =    0.000                                                                                
   RMAX   =    1.553    core radius for proj-oper                                                   
   RAUG   =    1.300    factor for augmentation sphere                                              
   RDEP   =    1.550    radius for radial grids                                                     
   RDEPT  =    1.329    core radius for aug-charge                                                  
                                                                                                    
   Atomic configuration                                                                             
    4 entries                                                                                       
     n  l   j            E        occ.                                                              
     1  0  0.50      -514.6923   2.0000                                                             
     2  0  0.50       -23.9615   2.0000                                                             
     2  1  0.50        -9.0305   4.0000                                                             
     3  2  1.50        -9.5241   0.0000                                                             
   Description                                                                                      
     l       E           TYP  RCUT    TYP  RCUT                                                     
     0    -23.9615318     23  1.200                                                                 
     0     -9.5240782     23  1.200                                                                 
     1     -9.0304911     23  1.520                                                                 
     1      8.1634956     23  1.520                                                                 
     2     -9.5240782      7  1.500                                                                 
  local pseudopotential read in
  partial core-charges read in
  partial kinetic energy density read in
  kinetic energy density of atom read in
  atomic valenz-charges read in
  non local Contribution for L=           0  read in
    real space projection operators read in
  non local Contribution for L=           0  read in
    real space projection operators read in
  non local Contribution for L=           1  read in
    real space projection operators read in
  non local Contribution for L=           1  read in
    real space projection operators read in
    PAW grid and wavefunctions read in

   number of l-projection  operators is LMAX  =           4
   number of lm-projection operators is LMMAX =           8

 -----------------------------------------------------------------------------
|                                                                             |
|               ----> ADVICE to this user running VASP <----                  |
|                                                                             |
|     You have a (more or less) 'large supercell' and for larger cells it     |
|     might be more efficient to use real-space projection operators.         |
|     Therefore, try LREAL= Auto in the INCAR file.                           |
|     Mind: For very accurate calculation, you might also keep the            |
|     reciprocal projection scheme (i.e. LREAL=.FALSE.).                      |
|                                                                             |
 -----------------------------------------------------------------------------

  PAW_PBE Mg_pv 13Apr2007               :
 energy of atom  1       EATOM=-1056.7344
 kinetic energy error for atom=    0.0221 (will be added to EATOM!!)
  PAW_PBE O 08Apr2002                   :
 energy of atom  2       EATOM= -432.3788
 kinetic energy error for atom=    0.0168 (will be added to EATOM!!)


 POSCAR: Mg  O
  positions in direct lattice
  No initial velocities read in
 exchange correlation table for  LEXCH =        8
   RHO(1)=    0.500       N(1)  =     2000
   RHO(2)=  100.500       N(2)  =     4000



--------------------------------------------------------------------------------------------------------


 ion  position               nearest neighbor table
   1  0.000  0.750  0.352-  33 2.11  35 2.11  36 2.11  43 2.11  52 2.11
   2  0.250  0.000  0.352-  34 2.11  35 2.11  36 2.11  44 2.11  51 2.11
   3  0.000  0.000  0.451-  35 2.11  34 2.11  33 2.11  41 2.11  50 2.11  39 2.12
   4  0.250  0.750  0.451-  36 2.11  34 2.11  33 2.11  42 2.11  49 2.11  40 2.12
   5  0.000  0.750  0.550-  47 2.11  40 2.11  56 2.11  39 2.11  33 2.12  37 2.15
   6  0.250  0.000  0.550-  55 2.11  48 2.11  40 2.11  39 2.11  34 2.12  38 2.15
   7  0.000  0.000  0.649-  37 2.11  38 2.11  45 2.11  54 2.11  39 2.11
   8  0.250  0.750  0.649-  40 2.11  38 2.11  37 2.11  46 2.11  53 2.11
   9  0.000  0.250  0.352-  41 2.11  35 2.11  43 2.11  44 2.11  60 2.11
  10  0.250  0.500  0.352-  42 2.11  36 2.11  43 2.11  44 2.11  59 2.11
  11  0.000  0.500  0.451-  43 2.11  41 2.11  42 2.11  33 2.11  58 2.11  47 2.12
  12  0.250  0.250  0.451-  44 2.11  41 2.11  42 2.11  34 2.11  57 2.11  48 2.12
  13  0.000  0.250  0.550-  47 2.11  48 2.11  64 2.11  39 2.11  41 2.12  45 2.15
  14  0.250  0.500  0.550-  63 2.11  48 2.11  40 2.11  47 2.11  42 2.13  46 2.15
  15  0.000  0.500  0.649-  46 2.10  62 2.10  47 2.11  45 2.11  37 2.11
  16  0.250  0.250  0.649-  48 2.11  45 2.11  38 2.11  46 2.11  61 2.11
  17  0.500  0.750  0.352-  49 2.11  36 2.11  51 2.11  52 2.11  59 2.11
  18  0.750  0.000  0.352-  50 2.11  35 2.11  51 2.11  52 2.11  60 2.11
  19  0.500  0.000  0.451-  51 2.11  49 2.11  50 2.11  34 2.11  57 2.11  55 2.12
  20  0.750  0.750  0.451-  52 2.11  49 2.11  50 2.11  33 2.11  58 2.11  56 2.12
  21  0.500  0.750  0.550-  63 2.11  56 2.11  40 2.11  55 2.11  49 2.13  53 2.15
  22  0.750  0.000  0.550-  55 2.11  56 2.11  64 2.11  39 2.11  50 2.12  54 2.15
  23  0.500  0.000  0.649-  53 2.10  61 2.10  55 2.11  38 2.11  54 2.11
  24  0.750  0.750  0.649-  56 2.11  54 2.11  37 2.11  53 2.11  62 2.11
  25  0.500  0.250  0.352-  57 2.11  51 2.11  44 2.11  59 2.11  60 2.11
  26  0.750  0.500  0.352-  58 2.11  52 2.11  43 2.11  59 2.11  60 2.11
  27  0.500  0.500  0.451-  59 2.11  49 2.11  57 2.11  58 2.11  42 2.11  63 2.13
  28  0.750  0.250  0.451-  60 2.11  50 2.11  57 2.11  58 2.11  41 2.11  64 2.12
  29  0.500  0.250  0.550-  63 2.11  48 2.11  64 2.11  55 2.11  57 2.13  61 2.15
  30  0.750  0.500  0.550-  63 2.11  56 2.11  64 2.11  47 2.11  58 2.13  62 2.15
  31  0.500  0.500  0.651-  46 2.12  53 2.12  61 2.12  62 2.12  63 2.14
  32  0.750  0.250  0.649-  64 2.11  54 2.11  45 2.11  62 2.11  61 2.11
  33  0.000  0.750  0.451-   1 2.11   3 2.11   4 2.11  11 2.11  20 2.11   5 2.12
  34  0.250  0.000  0.451-   2 2.11   3 2.11   4 2.11  12 2.11  19 2.11   6 2.12
  35  0.000  0.000  0.352-   3 2.11   2 2.11   1 2.11   9 2.11  18 2.11
  36  0.250  0.750  0.352-   4 2.11   2 2.11   1 2.11  10 2.11  17 2.11
  37  0.000  0.750  0.651-   7 2.11   8 2.11  24 2.11  15 2.11   5 2.15
  38  0.250  0.000  0.651-   7 2.11   8 2.11  16 2.11  23 2.11   6 2.15
  39  0.000  0.000  0.550-   7 2.11   6 2.11   5 2.11  13 2.11  22 2.11   3 2.12
  40  0.250  0.750  0.550-   8 2.11   6 2.11   5 2.11  14 2.11  21 2.11   4 2.12
  41  0.000  0.250  0.451-   9 2.11   3 2.11  11 2.11  12 2.11  28 2.11  13 2.12
  42  0.250  0.500  0.451-  10 2.11   4 2.11  11 2.11  12 2.11  27 2.11  14 2.13
  43  0.000  0.500  0.352-  11 2.11   9 2.11  10 2.11   1 2.11  26 2.11
  44  0.250  0.250  0.352-  12 2.11   9 2.11  10 2.11   2 2.11  25 2.11
  45  0.000  0.250  0.651-   7 2.11  16 2.11  32 2.11  15 2.11  13 2.15
  46  0.249  0.500  0.651-  15 2.10   8 2.11  16 2.11  31 2.12  14 2.15
  47  0.000  0.500  0.550-  15 2.11  13 2.11   5 2.11  14 2.11  30 2.11  11 2.12
  48  0.250  0.250  0.550-  16 2.11  13 2.11   6 2.11  14 2.11  29 2.11  12 2.12
  49  0.500  0.750  0.451-  17 2.11   4 2.11  19 2.11  20 2.11  27 2.11  21 2.13
  50  0.750  0.000  0.451-  18 2.11   3 2.11  19 2.11  20 2.11  28 2.11  22 2.12
  51  0.500  0.000  0.352-  19 2.11  17 2.11  18 2.11   2 2.11  25 2.11
  52  0.750  0.750  0.352-  20 2.11  17 2.11  18 2.11   1 2.11  26 2.11
  53  0.500  0.751  0.651-  23 2.10   8 2.11  24 2.11  31 2.12  21 2.15
  54  0.750  0.000  0.651-   7 2.11  24 2.11  32 2.11  23 2.11  22 2.15
  55  0.500  0.000  0.550-  23 2.11  22 2.11   6 2.11  21 2.11  29 2.11  19 2.12
  56  0.750  0.750  0.550-  24 2.11  22 2.11   5 2.11  30 2.11  21 2.11  20 2.12
  57  0.500  0.250  0.451-  25 2.11  19 2.11  12 2.11  27 2.11  28 2.11  29 2.13
  58  0.750  0.500  0.451-  26 2.11  20 2.11  11 2.11  27 2.11  28 2.11  30 2.13
  59  0.500  0.500  0.352-  27 2.11  17 2.11  25 2.11  26 2.11  10 2.11
  60  0.750  0.250  0.352-  28 2.11  18 2.11  25 2.11  26 2.11   9 2.11
  61  0.500  0.249  0.651-  23 2.10  16 2.11  32 2.11  31 2.12  29 2.15
  62  0.751  0.500  0.651-  15 2.10  24 2.11  32 2.11  31 2.12  30 2.15
  63  0.500  0.500  0.550-  14 2.11  21 2.11  29 2.11  30 2.11  27 2.13  31 2.14
  64  0.750  0.250  0.550-  32 2.11  22 2.11  13 2.11  30 2.11  29 2.11  28 2.12

  LATTYP: Found a simple tetragonal cell.
 ALAT       =     8.4409846542
 C/A-ratio  =     2.5270438657
  
  Lattice vectors:
  
 A1 = (   8.4409846542,   0.0000000000,   0.0000000000)
 A2 = (   0.0000000000,   8.4409846542,   0.0000000000)
 A3 = (   0.0000000000,   0.0000000000,  21.3307384906)


Analysis of symmetry for initial positions (statically):
=====================================================================
 Subroutine PRICEL returns:
 Original cell was already a primitive cell.
 

 Routine SETGRP: Setting up the symmetry group for a 
 simple tetragonal supercell.


 Subroutine GETGRP returns: Found  8 space group operations
 (whereof  8 operations were pure point group operations)
 out of a pool of 16 trial point group operations.


The static configuration has the point symmetry C_4v.


Analysis of symmetry for dynamics (positions and initial velocities):
=====================================================================
 Subroutine PRICEL returns:
 Original cell was already a primitive cell.
 

 Routine SETGRP: Setting up the symmetry group for a 
 simple tetragonal supercell.


 Subroutine GETGRP returns: Found  8 space group operations
 (whereof  8 operations were pure point group operations)
 out of a pool of 16 trial point group operations.


The dynamic configuration has the point symmetry C_4v.


Analysis of constrained symmetry for selective dynamics:
=====================================================================
 Subroutine PRICEL returns:
 Original cell was already a primitive cell.
 

 Routine SETGRP: Setting up the symmetry group for a 
 simple tetragonal supercell.


 Subroutine GETGRP returns: Found  8 space group operations
 (whereof  8 operations were pure point group operations)
 out of a pool of 16 trial point group operations.


The constrained configuration has the point symmetry C_4v.


 Subroutine INISYM returns: Found  8 space group operations
 (whereof  8 operations are pure point group operations),
 and found     1 'primitive' translations


----------------------------------------------------------------------------------------

                                     Primitive cell                                     

  volume of cell :    1519.8199

  direct lattice vectors                    reciprocal lattice vectors
     8.440984654  0.000000000  0.000000000     0.118469591  0.000000000  0.000000000
     0.000000000  8.440984654  0.000000000     0.000000000  0.118469591  0.000000000
     0.000000000  0.000000000 21.330738491     0.000000000  0.000000000  0.046880702

  length of vectors
     8.440984654  8.440984654 21.330738491     0.118469591  0.118469591  0.046880702

  position of ions in fractional coordinates (direct lattice)
     0.000000000  0.750000000  0.351605267
     0.250000000  0.000000000  0.351605267
     0.000000000  0.000000000  0.450535089
     0.250000000  0.750000000  0.450535089
     0.000000000  0.749939268  0.550083239
     0.250060732  0.000000000  0.550083239
     0.000000000  0.000000000  0.648745309
     0.249858327  0.750141673  0.648569547
     0.000000000  0.250000000  0.351605267
     0.250000000  0.500000000  0.351605267
     0.000000000  0.500000000  0.450535089
     0.250000000  0.250000000  0.450535089
     0.000000000  0.250060732  0.550083239
     0.250378379  0.500000000  0.550219524
     0.000000000  0.500000000  0.648615280
     0.249858327  0.249858327  0.648569547
     0.500000000  0.750000000  0.351605267
     0.750000000  0.000000000  0.351605267
     0.500000000  0.000000000  0.450535089
     0.750000000  0.750000000  0.450535089
     0.500000000  0.749621621  0.550219524
     0.749939268  0.000000000  0.550083239
     0.500000000  0.000000000  0.648615280
     0.750141673  0.750141673  0.648569547
     0.500000000  0.250000000  0.351605267
     0.750000000  0.500000000  0.351605267
     0.500000000  0.500000000  0.450535089
     0.750000000  0.250000000  0.450535089
     0.500000000  0.250378379  0.550219524
     0.749621621  0.500000000  0.550219524
     0.500000000  0.500000000  0.650616960
     0.750141673  0.249858327  0.648569547
     0.000000000  0.750000000  0.450535089
     0.250000000  0.000000000  0.450535089
     0.000000000  0.000000000  0.351605267
     0.250000000  0.750000000  0.351605267
     0.000000000  0.750218533  0.650979255
     0.249781467  0.000000000  0.650979255
     0.000000000  0.000000000  0.549809890
     0.249945770  0.750054230  0.549859113
     0.000000000  0.250000000  0.450535089
     0.250000000  0.500000000  0.450535089
     0.000000000  0.500000000  0.351605267
     0.250000000  0.250000000  0.351605267
     0.000000000  0.249781467  0.650979255
     0.248822710  0.500000000  0.650882872
     0.000000000  0.500000000  0.549762666
     0.249945770  0.249945770  0.549859113
     0.500000000  0.750000000  0.450535089
     0.750000000  0.000000000  0.450535089
     0.500000000  0.000000000  0.351605267
     0.750000000  0.750000000  0.351605267
     0.500000000  0.751177290  0.650882872
     0.750218533  0.000000000  0.650979255
     0.500000000  0.000000000  0.549762666
     0.750054230  0.750054230  0.549859113
     0.500000000  0.250000000  0.450535089
     0.750000000  0.500000000  0.450535089
     0.500000000  0.500000000  0.351605267
     0.750000000  0.250000000  0.351605267
     0.500000000  0.248822710  0.650882872
     0.751177290  0.500000000  0.650882872
     0.500000000  0.500000000  0.550231357
     0.750054230  0.249945770  0.549859113

  ion indices of the primitive-cell ions
   primitive index   ion index
                 1           1
                 2           2
                 3           3
                 4           4
                 5           5
                 6           6
                 7           7
                 8           8
                 9           9
                10          10
                11          11
                12          12
                13          13
                14          14
                15          15
                16          16
                17          17
                18          18
                19          19
                20          20
                21          21
                22          22
                23          23
                24          24
                25          25
                26          26
                27          27
                28          28
                29          29
                30          30
                31          31
                32          32
                33          33
                34          34
                35          35
                36          36
                37          37
                38          38
                39          39
                40          40
                41          41
                42          42
                43          43
                44          44
                45          45
                46          46
                47          47
                48          48
                49          49
                50          50
                51          51
                52          52
                53          53
                54          54
                55          55
                56          56
                57          57
                58          58
                59          59
                60          60
                61          61
                62          62
                63          63
                64          64

----------------------------------------------------------------------------------------



 KPOINTS: pymatgen v2020.8.13 with grid density = 

Automatic generation of k-mesh.
 Grid dimensions read from file:
 generate k-points for:    2    2    1

 Generating k-lattice:

  Cartesian coordinates                     Fractional coordinates (reciprocal lattice)
     0.059234796  0.000000000  0.000000000     0.500000000  0.000000000  0.000000000
     0.000000000  0.059234796  0.000000000     0.000000000  0.500000000  0.000000000
     0.000000000  0.000000000  0.046880702     0.000000000  0.000000000  1.000000000

  Length of vectors
     0.059234796  0.059234796  0.046880702

  Shift w.r.t. Gamma in fractional coordinates (k-lattice)
     0.000000000  0.000000000  0.000000000

 
 Subroutine IBZKPT returns following result:
 ===========================================
 
 Found      3 irreducible k-points:
 
 Following reciprocal coordinates:
            Coordinates               Weight
  0.000000  0.000000  0.000000      1.000000
  0.500000  0.000000  0.000000      2.000000
  0.500000  0.500000  0.000000      1.000000
 
 Following cartesian coordinates:
            Coordinates               Weight
  0.000000  0.000000  0.000000      1.000000
  0.059235  0.000000  0.000000      2.000000
  0.059235  0.059235  0.000000      1.000000
 


--------------------------------------------------------------------------------------------------------




 Dimension of arrays:
   k-points           NKPTS =      3   k-points in BZ     NKDIM =      3   number of bands    NBANDS=    320
   number of dos      NEDOS =    301   number of ions     NIONS =     64
   non local maximal  LDIM  =      5   non local SUM 2l+1 LMDIM =     13
   total plane-waves  NPLWV = 373248
   max r-space proj   IRMAX =      1   max aug-charges    IRDMAX=   5039
   dimension x,y,z NGX =    54 NGY =   54 NGZ =  128
   dimension x,y,z NGXF=   108 NGYF=  108 NGZF=  256
   support grid    NGXF=   108 NGYF=  108 NGZF=  256
   ions per type =              32  32
   NGX,Y,Z   is equivalent  to a cutoff of  10.64, 10.64,  9.98 a.u.
   NGXF,Y,Z  is equivalent  to a cutoff of  21.27, 21.27, 19.95 a.u.

 SYSTEM =  MgO-rocksalt                            
 POSCAR =  Mg  O                                   

 Startparameter for this run:
   NWRITE =      2    write-flag & timer
   PREC   = normal    normal or accurate (medium, high low for compatibility)
   ISTART =      0    job   : 0-new  1-cont  2-samecut
   ICHARG =      2    charge: 1-file 2-atom 10-const
   ISPIN  =      1    spin polarized calculation?
   LNONCOLLINEAR =      F non collinear calculations
   LSORBIT =      F    spin-orbit coupling
   INIWAV =      1    electr: 0-lowe 1-rand  2-diag
   LASPH  =      T    aspherical Exc in radial PAW
 Electronic Relaxation 1
   ENCUT  =  600.0 eV  44.10 Ry    6.64 a.u.  16.86 16.86 42.60*2*pi/ulx,y,z
   ENINI  =  600.0     initial cutoff
   ENAUG  =  758.8 eV  augmentation charge cutoff
   NELM   =    200;   NELMIN=  8; NELMDL= -5     # of ELM steps 
   EDIFF  = 0.1E-04   stopping-criterion for ELM
   LREAL  =      F    real-space projection
   NLSPLINE    = F    spline interpolate recip. space projectors
   LCOMPAT=      F    compatible to vasp.4.4
   GGA_COMPAT  = T    GGA compatible to vasp.4.4-vasp.4.6
   LMAXPAW     = -100 max onsite density
   LMAXMIX     =    2 max onsite mixed and CHGCAR
   VOSKOWN=      0    Vosko Wilk Nusair interpolation
   ROPT   =    0.00000   0.00000
 Ionic relaxation
   EDIFFG = 0.1E-03   stopping-criterion for IOM
   NSW    =      0    number of steps for IOM
   NBLOCK =      1;   KBLOCK =      1    inner block; outer block 
   IBRION =     -1    ionic relax: 0-MD 1-quasi-New 2-CG
   NFREE  =      0    steps in history (QN), initial steepest desc. (CG)
   ISIF   =      2    stress and relaxation
   IWAVPR =     10    prediction:  0-non 1-charg 2-wave 3-comb
   ISYM   =      2    0-nonsym 1-usesym 2-fastsym
   LCORR  =      T    Harris-Foulkes like correction to forces

   POTIM  = 0.5000    time-step for ionic-motion
   TEIN   =    0.0    initial temperature
   TEBEG  =    0.0;   TEEND  =   0.0 temperature during run
   SMASS  =  -3.00    Nose mass-parameter (am)
   estimated Nose-frequenzy (Omega)   =  0.10E-29 period in steps = 0.13E+47 mass=  -0.163E-26a.u.
   SCALEE = 1.0000    scale energy and forces
   NPACO  =    256;   APACO  = 10.0  distance and # of slots for P.C.
   PSTRESS=    0.0 pullay stress

  Mass of Ions in am
   POMASS =  24.30 16.00
  Ionic Valenz
   ZVAL   =   8.00  6.00
  Atomic Wigner-Seitz radii
   RWIGS  =  -1.00 -1.00
  virtual crystal weights 
   VCA    =   1.00  1.00
   NELECT =     448.0000    total number of electrons
   NUPDOWN=      -1.0000    fix difference up-down

 DOS related values:
   EMIN   =  10.00;   EMAX   =-10.00  energy-range for DOS
   EFERMI =   0.00
   ISMEAR =     0;   SIGMA  =   0.05  broadening in eV -4-tet -1-fermi 0-gaus

 Electronic relaxation 2 (details)
   IALGO  =     58    algorithm
   LDIAG  =      T    sub-space diagonalisation (order eigenvalues)
   LSUBROT=      F    optimize rotation matrix (better conditioning)
   TURBO    =      0    0=normal 1=particle mesh
   IRESTART =      0    0=no restart 2=restart with 2 vectors
   NREBOOT  =      0    no. of reboots
   NMIN     =      0    reboot dimension
   EREF     =   0.00    reference energy to select bands
   IMIX   =      4    mixing-type and parameters
     AMIX     =   0.40;   BMIX     =  1.00
     AMIX_MAG =   1.60;   BMIX_MAG =  1.00
     AMIN     =   0.10
     WC   =   100.;   INIMIX=   1;  MIXPRE=   1;  MAXMIX= -45

 Intra band minimization:
   WEIMIN = 0.0000     energy-eigenvalue tresh-hold
   EBREAK =  0.78E-08  absolut break condition
   DEPER  =   0.30     relativ break condition  

   TIME   =   0.40     timestep for ELM

  volume/ion in A,a.u.               =      23.75       160.25
  Fermi-wavevector in a.u.,A,eV,Ry     =   1.089524  2.058902 16.150966  1.187063
  Thomas-Fermi vector in A             =   2.225729

 Write flags
   LWAVE        =      F    write WAVECAR
   LDOWNSAMPLE  =      F    k-point downsampling of WAVECAR
   LCHARG       =      F    write CHGCAR
   LVTOT        =      F    write LOCPOT, total local potential
   LVHAR        =      F    write LOCPOT, Hartree potential only
   LELF         =      F    write electronic localiz. function (ELF)
   LORBIT       =      0    0 simple, 1 ext, 2 COOP (PROOUT), +10 PAW based schemes


 Dipole corrections
   LMONO  =      F    monopole corrections only (constant potential shift)
   LDIPOL =      T    correct potential (dipole corrections)
   IDIPOL =      3    1-x, 2-y, 3-z, 4-all directions 
   EPSILON=  1.0000000 bulk dielectric constant

 Exchange correlation treatment:
   GGA     =    PE    GGA type
   LEXCH   =     8    internal setting for exchange type
   LIBXC   =     F    Libxc                    
   VOSKOWN =     0    Vosko Wilk Nusair interpolation
   LHFCALC =     F    Hartree Fock is set to
   LHFONE  =     F    Hartree Fock one center treatment
   AEXX    =    0.0000 exact exchange contribution

 Linear response parameters
   LEPSILON=     F    determine dielectric tensor
   LRPA    =     F    only Hartree local field effects (RPA)
   LNABLA  =     F    use nabla operator in PAW spheres
   LVEL    =     F    velocity operator in full k-point grid
   CSHIFT  =0.1000    complex shift for real part using Kramers Kronig
   OMEGAMAX=  -1.0    maximum frequency
   DEG_THRESHOLD= 0.2000000E-02 threshold for treating states as degnerate
   RTIME   =   -0.100 relaxation time in fs
  (WPLASMAI=    0.000 imaginary part of plasma frequency in eV, 0.658/RTIME)
   DFIELD  = 0.0000000 0.0000000 0.0000000 field for delta impulse in time

  Optional k-point grid parameters
   LKPOINTS_OPT  =     F    use optional k-point grid
   KPOINTS_OPT_MODE=     1    mode for optional k-point grid

 Orbital magnetization related:
   ORBITALMAG=     F  switch on orbital magnetization
   LCHIMAG   =     F  perturbation theory with respect to B field
   DQ        =  0.001000  dq finite difference perturbation B field
   LLRAUG    =     F  two centre corrections for induced B field



--------------------------------------------------------------------------------------------------------


 Static calculation
 charge density and potential will be updated during run
 non-spin polarized calculation
 Conjugate gradient for all bands (Freysoldt, et al. PRB 79, 241103 (2009))
 preconditioned conjugated gradient                                        
 perform sub-space diagonalisation
    before iterative eigenvector-optimisation
 modified Broyden-mixing scheme, WC =      100.0
 initial mixing is a Kerker type mixing with AMIX =  0.4000 and BMIX =      1.0000
 Hartree-type preconditioning will be used
 using additional bands           96
 reciprocal scheme for non local part
 use partial core corrections
 no Harris-corrections to forces 
 use gradient corrections 
 use of overlap-Matrix (Vanderbilt PP)
 Gauss-broadening in eV      SIGMA  =   0.05


--------------------------------------------------------------------------------------------------------


  energy-cutoff  :      600.00
  volume of cell :     1519.82
      direct lattice vectors                 reciprocal lattice vectors
     8.440984654  0.000000000  0.000000000     0.118469591  0.000000000  0.000000000
     0.000000000  8.440984654  0.000000000     0.000000000  0.118469591  0.000000000
     0.000000000  0.000000000 21.330738491     0.000000000  0.000000000  0.046880702

  length of vectors
     8.440984654  8.440984654 21.330738491     0.118469591  0.118469591  0.046880702



 k-points in units of 2pi/SCALE and weight: pymatgen v2020.8.13 with grid density = 
   0.00000000  0.00000000  0.00000000       0.250
   0.05923480  0.00000000  0.00000000       0.500
   0.05923480  0.05923480  0.00000000       0.250

 k-points in reciprocal lattice and weights: pymatgen v2020.8.13 with grid density = 
   0.00000000  0.00000000  0.00000000       0.250
   0.50000000  0.00000000  0.00000000       0.500
   0.50000000  0.50000000  0.00000000       0.250

 position of ions in fractional coordinates (direct lattice) 
   0.00000000  0.75000000  0.35160527
   0.25000000  0.00000000  0.35160527
   0.00000000  0.00000000  0.45053509
   0.25000000  0.75000000  0.45053509
   0.00000000  0.74993927  0.55008324
   0.25006073  0.00000000  0.55008324
   0.00000000  0.00000000  0.64874531
   0.24985833  0.75014167  0.64856955
   0.00000000  0.25000000  0.35160527
   0.25000000  0.50000000  0.35160527
   0.00000000  0.50000000  0.45053509
   0.25000000  0.25000000  0.45053509
   0.00000000  0.25006073  0.55008324
   0.25037838  0.50000000  0.55021952
   0.00000000  0.50000000  0.64861528
   0.24985833  0.24985833  0.64856955
   0.50000000  0.75000000  0.35160527
   0.75000000  0.00000000  0.35160527
   0.50000000  0.00000000  0.45053509
   0.75000000  0.75000000  0.45053509
   0.50000000  0.74962162  0.55021952
   0.74993927  0.00000000  0.55008324
   0.50000000  0.00000000  0.64861528
   0.75014167  0.75014167  0.64856955
   0.50000000  0.25000000  0.35160527
   0.75000000  0.50000000  0.35160527
   0.50000000  0.50000000  0.45053509
   0.75000000  0.25000000  0.45053509
   0.50000000  0.25037838  0.55021952
   0.74962162  0.50000000  0.55021952
   0.50000000  0.50000000  0.65061696
   0.75014167  0.24985833  0.64856955
   0.00000000  0.75000000  0.45053509
   0.25000000  0.00000000  0.45053509
   0.00000000  0.00000000  0.35160527
   0.25000000  0.75000000  0.35160527
   0.00000000  0.75021853  0.65097926
   0.24978147  0.00000000  0.65097926
   0.00000000  0.00000000  0.54980989
   0.24994577  0.75005423  0.54985911
   0.00000000  0.25000000  0.45053509
   0.25000000  0.50000000  0.45053509
   0.00000000  0.50000000  0.35160527
   0.25000000  0.25000000  0.35160527
   0.00000000  0.24978147  0.65097926
   0.24882271  0.50000000  0.65088287
   0.00000000  0.50000000  0.54976267
   0.24994577  0.24994577  0.54985911
   0.50000000  0.75000000  0.45053509
   0.75000000  0.00000000  0.45053509
   0.50000000  0.00000000  0.35160527
   0.75000000  0.75000000  0.35160527
   0.50000000  0.75117729  0.65088287
   0.75021853  0.00000000  0.65097926
   0.50000000  0.00000000  0.54976267
   0.75005423  0.75005423  0.54985911
   0.50000000  0.25000000  0.45053509
   0.75000000  0.50000000  0.45053509
   0.50000000  0.50000000  0.35160527
   0.75000000  0.25000000  0.35160527
   0.50000000  0.24882271  0.65088287
   0.75117729  0.50000000  0.65088287
   0.50000000  0.50000000  0.55023136
   0.75005423  0.24994577  0.54985911

 position of ions in cartesian coordinates  (Angst):
   0.00000000  6.33073849  7.50000000
   2.11024616  0.00000000  7.50000000
   0.00000000  0.00000000  9.61024616
   2.11024616  6.33073849  9.61024616
   0.00000000  6.33022585 11.73368172
   2.11075880  0.00000000 11.73368172
   0.00000000  0.00000000 13.83821654
   2.10905031  6.33193435 13.83446740
   0.00000000  2.11024616  7.50000000
   2.11024616  4.22049233  7.50000000
   0.00000000  4.22049233  9.61024616
   2.11024616  2.11024616  9.61024616
   0.00000000  2.11075880 11.73368172
   2.11344006  4.22049233 11.73658877
   0.00000000  4.22049233 13.83544293
   2.10905031  2.10905031 13.83446740
   4.22049233  6.33073849  7.50000000
   6.33073849  0.00000000  7.50000000
   4.22049233  0.00000000  9.61024616
   6.33073849  6.33073849  9.61024616
   4.22049233  6.32754460 11.73658877
   6.33022585  0.00000000 11.73368172
   4.22049233  0.00000000 13.83544293
   6.33193435  6.33193435 13.83446740
   4.22049233  2.11024616  7.50000000
   6.33073849  4.22049233  7.50000000
   4.22049233  4.22049233  9.61024616
   6.33073849  2.11024616  9.61024616
   4.22049233  2.11344006 11.73658877
   6.32754460  4.22049233 11.73658877
   4.22049233  4.22049233 13.87814023
   6.33193435  2.10905031 13.83446740
   0.00000000  6.33073849  9.61024616
   2.11024616  0.00000000  9.61024616
   0.00000000  0.00000000  7.50000000
   2.11024616  6.33073849  7.50000000
   0.00000000  6.33258312 13.88586825
   2.10840153  0.00000000 13.88586825
   0.00000000  0.00000000 11.72785099
   2.10978841  6.33119624 11.72890095
   0.00000000  2.11024616  9.61024616
   2.11024616  4.22049233  9.61024616
   0.00000000  4.22049233  7.50000000
   2.11024616  2.11024616  7.50000000
   0.00000000  2.10840153 13.88586825
   2.10030867  4.22049233 13.88381232
   0.00000000  4.22049233 11.72684365
   2.10978841  2.10978841 11.72890095
   4.22049233  6.33073849  9.61024616
   6.33073849  0.00000000  9.61024616
   4.22049233  0.00000000  7.50000000
   6.33073849  6.33073849  7.50000000
   4.22049233  6.34067598 13.88381232
   6.33258312  0.00000000 13.88586825
   4.22049233  0.00000000 11.72684365
   6.33119624  6.33119624 11.72890095
   4.22049233  2.11024616  9.61024616
   6.33073849  4.22049233  9.61024616
   4.22049233  4.22049233  7.50000000
   6.33073849  2.11024616  7.50000000
   4.22049233  2.10030867 13.88381232
   6.34067598  4.22049233 13.88381232
   4.22049233  4.22049233 11.73684118
   6.33119624  2.10978841 11.72890095



--------------------------------------------------------------------------------------------------------


 k-point   1 :   0.0000 0.0000 0.0000  plane waves:   50745
 k-point   2 :   0.5000 0.0000 0.0000  plane waves:   50798
 k-point   3 :   0.5000 0.5000 0.0000  plane waves:   50752

 maximum and minimum number of plane-waves per node :     12720    12632

 maximum number of plane-waves:     50798
 maximum index in each direction: 
   IXMAX=   16   IYMAX=   16   IZMAX=   42
   IXMIN=  -17   IYMIN=  -17   IZMIN=  -42


 parallel 3D FFT for wavefunctions:
    minimum data exchange during FFTs selected (reduces bandwidth)
 parallel 3D FFT for charge:
    minimum data exchange during FFTs selected (reduces bandwidth)


 total amount of memory used by VASP MPI-rank0    69719. kBytes
=======================================================================

   base      :      30000. kBytes
   nonl-proj :      20988. kBytes
   fftplans  :       3857. kBytes
   grid      :       5439. kBytes
   one-center:        129. kBytes
   wavefun   :       9306. kBytes

     INWAV:  cpu time      0.0001: real time      0.0003
 Broyden mixing: mesh for mixing (old mesh)
   NGX = 33   NGY = 33   NGZ = 85
  (NGX  =108   NGY  =108   NGZ  =256)
  gives a total of  92565 points

 initial charge density was supplied:
 charge density of overlapping atoms calculated
 number of electron     448.0000000 magnetization 
 keeping initial charge density in first step


--------------------------------------------------------------------------------------------------------


 Maximum index for augmentation-charges          334 (set IRDMAX)


--------------------------------------------------------------------------------------------------------


 First call to EWALD:  gamma=   0.154
 Maximum number of real-space cells 4x 4x 2
 Maximum number of reciprocal cells 2x 2x 5

    FEWALD:  cpu time      0.0063: real time      0.0063


--------------------------------------- Iteration      1(   1)  ---------------------------------------


    POTLOK:  cpu time      0.0346: real time      0.0347
    SETDIJ:  cpu time      0.1181: real time      0.1181
    TRIAL :  cpu time      4.6423: real time      4.6434
    CORREC:  cpu time      0.0010: real time      0.0010
    --------------------------------------------
      LOOP:  cpu time      4.8003: real time      4.8016

 eigenvalue-minimisations  :  2304
 total energy-change (2. order) : 0.4019674E+04  (-0.3021248E+05)
 number of electron     448.0000000 magnetization 
 augmentation part      448.0000000 magnetization 

 DIPCOR: dipole corrections for dipol
 direction  3 min pos     1,
 dipolmoment           0.000000      0.000000     -0.000006 electrons x Angstroem
 Tr[quadrupol]     -5963.452724

 energy correction for charged system         0.000000 eV
 dipol+quadrupol energy correction           -0.000000 eV
 added-field ion interaction          0.000003 eV  (added to PSCEN)


 Free energy of the ion-electron system (eV)
  ---------------------------------------------------
  alpha Z        PSCENC =       875.25928823
  Ewald energy   TEWEN  =    140467.92172078
  -Hartree energ DENC   =   -175972.37177726
  -exchange      EXHF   =         0.00000000
  -V(xc)+E(xc)   XCENC  =      1749.49499761
  PAW double counting   =     31854.93933934   -35687.86723865
  entropy T*S    EENTRO =        -0.02120384
  eigenvalues    EBANDS =     -6918.05776521
  atomic energy  EATOM  =     47650.37657287
  ---------------------------------------------------
  free energy    TOTEN  =      4019.67393385 eV

  energy without entropy =     4019.69513770  energy(sigma->0) =     4019.68453578


--------------------------------------------------------------------------------------------------------




--------------------------------------- Iteration      1(   2)  ---------------------------------------


    TRIAL :  cpu time      1.6901: real time      1.6904
    CORREC:  cpu time      0.0004: real time      0.0004
    --------------------------------------------
      LOOP:  cpu time      1.6944: real time      1.7036

 eigenvalue-minimisations  :  2304
 total energy-change (2. order) :-0.4149867E+04  (-0.4078861E+04)
 number of electron     448.0000000 magnetization 
 augmentation part      448.0000000 magnetization 

 DIPCOR: dipole corrections for dipol
 direction  3 min pos     1,
 dipolmoment           0.000000      0.000000     -0.000006 electrons x Angstroem
 Tr[quadrupol]     -5963.452724

 energy correction for charged system         0.000000 eV
 dipol+quadrupol energy correction           -0.000000 eV
 added-field ion interaction          0.000003 eV  (added to PSCEN)


 Free energy of the ion-electron system (eV)
  ---------------------------------------------------
  alpha Z        PSCENC =       875.25928823
  Ewald energy   TEWEN  =    140467.92172078
  -Hartree energ DENC   =   -175972.37177726
  -exchange      EXHF   =         0.00000000
  -V(xc)+E(xc)   XCENC  =      1749.49499761
  PAW double counting   =     31854.93933934   -35687.86723865
  entropy T*S    EENTRO =        -0.00000000
  eigenvalues    EBANDS =    -11067.94630822
  atomic energy  EATOM  =     47650.37657287
  ---------------------------------------------------
  free energy    TOTEN  =      -130.19340531 eV

  energy without entropy =     -130.19340531  energy(sigma->0) =     -130.19340531


--------------------------------------------------------------------------------------------------------




--------------------------------------- Iteration      1(   3)  ---------------------------------------


    TRIAL :  cpu time      1.7603: real time      1.7605
    CORREC:  cpu time      0.0003: real time      0.0003
    --------------------------------------------
      LOOP:  cpu time      1.7642: real time      1.7728

 eigenvalue-minimisations  :  2304
 total energy-change (2. order) :-0.2991448E+03  (-0.2971204E+03)
 number of electron     448.0000000 magnetization 
 augmentation part      448.0000000 magnetization 

 DIPCOR: dipole corrections for dipol
 direction  3 min pos     1,
 dipolmoment           0.000000      0.000000     -0.000006 electrons x Angstroem
 Tr[quadrupol]     -5963.452724

 energy correction for charged system         0.000000 eV
 dipol+quadrupol energy correction           -0.000000 eV
 added-field ion interaction          0.000003 eV  (added to PSCEN)


 Free energy of the ion-electron system (eV)
  ---------------------------------------------------
  alpha Z        PSCENC =       875.25928823
  Ewald energy   TEWEN  =    140467.92172078
  -Hartree energ DENC   =   -175972.37177726
  -exchange      EXHF   =         0.00000000
  -V(xc)+E(xc)   XCENC  =      1749.49499761
  PAW double counting   =     31854.93933934   -35687.86723865
  entropy T*S    EENTRO =        -0.00000000
  eigenvalues    EBANDS =    -11367.09109833
  atomic energy  EATOM  =     47650.37657287
  ---------------------------------------------------
  free energy    TOTEN  =      -429.33819541 eV

  energy without entropy =     -429.33819541  energy(sigma->0) =     -429.33819541


--------------------------------------------------------------------------------------------------------




--------------------------------------- Iteration      1(   4)  ---------------------------------------


    TRIAL :  cpu time      1.7663: real time      1.7668
    CORREC:  cpu time      0.0003: real time      0.0003
    --------------------------------------------
      LOOP:  cpu time      1.7785: real time      1.7796

 eigenvalue-minimisations  :  2304
 total energy-change (2. order) :-0.5619074E+01  (-0.5613146E+01)
 number of electron     448.0000000 magnetization 
 augmentation part      448.0000000 magnetization 

 DIPCOR: dipole corrections for dipol
 direction  3 min pos     1,
 dipolmoment           0.000000      0.000000     -0.000006 electrons x Angstroem
 Tr[quadrupol]     -5963.452724

 energy correction for charged system         0.000000 eV
 dipol+quadrupol energy correction           -0.000000 eV
 added-field ion interaction          0.000003 eV  (added to PSCEN)


 Free energy of the ion-electron system (eV)
  ---------------------------------------------------
  alpha Z        PSCENC =       875.25928823
  Ewald energy   TEWEN  =    140467.92172078
  -Hartree energ DENC   =   -175972.37177726
  -exchange      EXHF   =         0.00000000
  -V(xc)+E(xc)   XCENC  =      1749.49499761
  PAW double counting   =     31854.93933934   -35687.86723865
  entropy T*S    EENTRO =        -0.00000000
  eigenvalues    EBANDS =    -11372.71017256
  atomic energy  EATOM  =     47650.37657287
  ---------------------------------------------------
  free energy    TOTEN  =      -434.95726965 eV

  energy without entropy =     -434.95726965  energy(sigma->0) =     -434.95726965


--------------------------------------------------------------------------------------------------------




--------------------------------------- Iteration      1(   5)  ---------------------------------------


    TRIAL :  cpu time      1.9414: real time      1.9417
    CORREC:  cpu time      0.0004: real time      0.0005
    CHARGE:  cpu time      0.0564: real time      0.0566
    --------------------------------------------
      LOOP:  cpu time      2.0035: real time      2.0113

 eigenvalue-minimisations  :  2496
 total energy-change (2. order) :-0.7844247E-01  (-0.7843937E-01)
 number of electron     447.9999360 magnetization 
 augmentation part      158.8641375 magnetization 

 DIPCOR: dipole corrections for dipol
 direction  3 min pos     1,
 dipolmoment           0.000000      0.000000     -0.000006 electrons x Angstroem
 Tr[quadrupol]     -5963.452724

 energy correction for charged system         0.000000 eV
 dipol+quadrupol energy correction           -0.000000 eV
 added-field ion interaction          0.000003 eV  (added to PSCEN)


 Free energy of the ion-electron system (eV)
  ---------------------------------------------------
  alpha Z        PSCENC =       875.25928823
  Ewald energy   TEWEN  =    140467.92172078
  -Hartree energ DENC   =   -175972.37177726
  -exchange      EXHF   =         0.00000000
  -V(xc)+E(xc)   XCENC  =      1749.49499761
  PAW double counting   =     31854.93933934   -35687.86723865
  entropy T*S    EENTRO =        -0.00000000
  eigenvalues    EBANDS =    -11372.78861504
  atomic energy  EATOM  =     47650.37657287
  ---------------------------------------------------
  free energy    TOTEN  =      -435.03571213 eV

  energy without entropy =     -435.03571212  energy(sigma->0) =     -435.03571213


--------------------------------------------------------------------------------------------------------




--------------------------------------- Iteration      1(   6)  ---------------------------------------


    POTLOK:  cpu time      0.0261: real time      0.0261
    SETDIJ:  cpu time      0.1157: real time      0.1157
    TRIAL :  cpu time      0.5565: real time      0.5573
    CORREC:  cpu time      0.3904: real time      0.3906
    CHARGE:  cpu time      0.0418: real time      0.0418
    --------------------------------------------
      LOOP:  cpu time      1.1420: real time      1.1432

 eigenvalue-minimisations  :     0
 total energy-change (2. order) : 0.1722077E+03  (-0.9488292E+02)
 number of electron     447.9999254 magnetization 
 augmentation part      156.0493672 magnetization 

 DIPCOR: dipole corrections for dipol
 direction  3 min pos     1,
 dipolmoment           0.000000      0.000000      0.313025 electrons x Angstroem
 Tr[quadrupol]     -6000.420117

 energy correction for charged system         0.000000 eV
 dipol+quadrupol energy correction           -0.005833 eV
 added-field ion interaction         -0.170993 eV  (added to PSCEN)


 Free energy of the ion-electron system (eV)
  ---------------------------------------------------
  alpha Z        PSCENC =       874.95912080
  Ewald energy   TEWEN  =    140467.92172078
  -Hartree energ DENC   =   -179810.10560306
  -exchange      EXHF   =         0.00000000
  -V(xc)+E(xc)   XCENC  =      1873.15501996
  PAW double counting   =     36149.21978991   -39936.10302961
  entropy T*S    EENTRO =        -0.00000000
  eigenvalues    EBANDS =     -7532.25161959
  atomic energy  EATOM  =     47650.37657287
  ---------------------------------------------------
  free energy    TOTEN  =      -262.82802795 eV

  energy without entropy =     -262.82802795  energy(sigma->0) =     -262.82802795


--------------------------------------------------------------------------------------------------------




--------------------------------------- Iteration      1(   7)  ---------------------------------------


    POTLOK:  cpu time      0.0218: real time      0.0218
    SETDIJ:  cpu time      0.1163: real time      0.1164
    TRIAL :  cpu time      0.5071: real time      0.5071
    CORREC:  cpu time      0.3809: real time      0.3809
    CHARGE:  cpu time      0.0418: real time      0.0419
    --------------------------------------------
      LOOP:  cpu time      1.0799: real time      1.0802

 eigenvalue-minimisations  :     0
 total energy-change (2. order) :-0.9518862E+02  (-0.7097657E+01)
 number of electron     447.9999245 magnetization 
 augmentation part      154.1017071 magnetization 

 DIPCOR: dipole corrections for dipol
 direction  3 min pos     1,
 dipolmoment           0.000000      0.000000      0.230309 electrons x Angstroem
 Tr[quadrupol]     -6005.374705

 energy correction for charged system         0.000000 eV
 dipol+quadrupol energy correction           -0.003158 eV
 added-field ion interaction         -0.125808 eV  (added to PSCEN)


 Free energy of the ion-electron system (eV)
  ---------------------------------------------------
  alpha Z        PSCENC =       875.07081693
  Ewald energy   TEWEN  =    140467.92172078
  -Hartree energ DENC   =   -177980.46331739
  -exchange      EXHF   =         0.00000000
  -V(xc)+E(xc)   XCENC  =      1805.96256692
  PAW double counting   =     35090.64049586   -38946.47639312
  entropy T*S    EENTRO =        -0.00000000
  eigenvalues    EBANDS =     -9321.04910658
  atomic energy  EATOM  =     47650.37657287
  ---------------------------------------------------
  free energy    TOTEN  =      -358.01664373 eV

  energy without entropy =     -358.01664373  energy(sigma->0) =     -358.01664373


--------------------------------------------------------------------------------------------------------




--------------------------------------- Iteration      1(   8)  ---------------------------------------


    POTLOK:  cpu time      0.0219: real time      0.0219
    SETDIJ:  cpu time      0.1162: real time      0.1162
    TRIAL :  cpu time      0.5079: real time      0.5079
    CORREC:  cpu time      0.3826: real time      0.3827
    CHARGE:  cpu time      0.0419: real time      0.0419
    --------------------------------------------
      LOOP:  cpu time      1.0825: real time      1.0828

 eigenvalue-minimisations  :     0
 total energy-change (2. order) :-0.7112386E+01  (-0.4405196E+01)
 number of electron     447.9999228 magnetization 
 augmentation part      154.2301814 magnetization 

 DIPCOR: dipole corrections for dipol
 direction  3 min pos     1,
 dipolmoment           0.000000      0.000000      0.145607 electrons x Angstroem
 Tr[quadrupol]     -6003.362005

 energy correction for charged system         0.000000 eV
 dipol+quadrupol energy correction           -0.001262 eV
 added-field ion interaction         -0.079539 eV  (added to PSCEN)


 Free energy of the ion-electron system (eV)
  ---------------------------------------------------
  alpha Z        PSCENC =       875.15068606
  Ewald energy   TEWEN  =    140467.92172078
  -Hartree energ DENC   =   -177890.79281947
  -exchange      EXHF   =         0.00000000
  -V(xc)+E(xc)   XCENC  =      1795.57373883
  PAW double counting   =     34951.55898637   -38735.64492957
  entropy T*S    EENTRO =        -0.00000000
  eigenvalues    EBANDS =     -9479.27298600
  atomic energy  EATOM  =     47650.37657287
  ---------------------------------------------------
  free energy    TOTEN  =      -365.12903013 eV

  energy without entropy =     -365.12903013  energy(sigma->0) =     -365.12903013


--------------------------------------------------------------------------------------------------------




--------------------------------------- Iteration      1(   9)  ---------------------------------------


    POTLOK:  cpu time      0.0219: real time      0.0219
    SETDIJ:  cpu time      0.1167: real time      0.1167
    TRIAL :  cpu time      0.5100: real time      0.5100
    CORREC:  cpu time      0.3859: real time      0.3860
    CHARGE:  cpu time      0.0421: real time      0.0421
    --------------------------------------------
      LOOP:  cpu time      1.0809: real time      1.0887

 eigenvalue-minimisations  :     0
 total energy-change (2. order) :-0.4318350E+01  (-0.1760841E+01)
 number of electron     447.9999227 magnetization 
 augmentation part      154.2917010 magnetization 

 DIPCOR: dipole corrections for dipol
 direction  3 min pos     1,
 dipolmoment           0.000000      0.000000      0.106959 electrons x Angstroem
 Tr[quadrupol]     -5996.133364

 energy correction for charged system         0.000000 eV
 dipol+quadrupol energy correction           -0.000681 eV
 added-field ion interaction         -0.058427 eV  (added to PSCEN)


 Free energy of the ion-electron system (eV)
  ---------------------------------------------------
  alpha Z        PSCENC =       875.19206686
  Ewald energy   TEWEN  =    140467.92172078
  -Hartree energ DENC   =   -177748.05389799
  -exchange      EXHF   =         0.00000000
  -V(xc)+E(xc)   XCENC  =      1794.83144791
  PAW double counting   =     34846.31147137   -38668.13813677
  entropy T*S    EENTRO =        -0.00000000
  eigenvalues    EBANDS =     -9587.88862541
  atomic energy  EATOM  =     47650.37657287
  ---------------------------------------------------
  free energy    TOTEN  =      -369.44738038 eV

  energy without entropy =     -369.44738038  energy(sigma->0) =     -369.44738038


--------------------------------------------------------------------------------------------------------




--------------------------------------- Iteration      1(  10)  ---------------------------------------


    POTLOK:  cpu time      0.0220: real time      0.0220
    SETDIJ:  cpu time      0.1159: real time      0.1159
    TRIAL :  cpu time      0.5080: real time      0.5080
    CORREC:  cpu time      0.3804: real time      0.3805
    CHARGE:  cpu time      0.0421: real time      0.0421
    --------------------------------------------
      LOOP:  cpu time      1.0729: real time      1.0810

 eigenvalue-minimisations  :     0
 total energy-change (2. order) :-0.1779828E+01  (-0.6064020E+00)
 number of electron     447.9999233 magnetization 
 augmentation part      154.2565521 magnetization 

 DIPCOR: dipole corrections for dipol
 direction  3 min pos     1,
 dipolmoment           0.000000      0.000000      0.129423 electrons x Angstroem
 Tr[quadrupol]     -5995.619986

 energy correction for charged system         0.000000 eV
 dipol+quadrupol energy correction           -0.000997 eV
 added-field ion interaction         -0.070698 eV  (added to PSCEN)


 Free energy of the ion-electron system (eV)
  ---------------------------------------------------
  alpha Z        PSCENC =       875.19798164
  Ewald energy   TEWEN  =    140467.92172078
  -Hartree energ DENC   =   -177573.46787512
  -exchange      EXHF   =         0.00000000
  -V(xc)+E(xc)   XCENC  =      1793.30665086
  PAW double counting   =     34735.97538370   -38568.09640870
  entropy T*S    EENTRO =        -0.00000000
  eigenvalues    EBANDS =     -9752.44123418
  atomic energy  EATOM  =     47650.37657287
  ---------------------------------------------------
  free energy    TOTEN  =      -371.22720816 eV

  energy without entropy =     -371.22720816  energy(sigma->0) =     -371.22720816


--------------------------------------------------------------------------------------------------------




--------------------------------------- Iteration      1(  11)  ---------------------------------------


    POTLOK:  cpu time      0.0228: real time      0.0228
    SETDIJ:  cpu time      0.1150: real time      0.1150
    TRIAL :  cpu time      0.5077: real time      0.5077
    CORREC:  cpu time      0.3796: real time      0.3798
    CHARGE:  cpu time      0.0416: real time      0.0416
    --------------------------------------------
      LOOP:  cpu time      1.0705: real time      1.0790

 eigenvalue-minimisations  :     0
 total energy-change (2. order) :-0.6071896E+00  (-0.2034526E+00)
 number of electron     447.9999238 magnetization 
 augmentation part      154.3438195 magnetization 

 DIPCOR: dipole corrections for dipol
 direction  3 min pos     1,
 dipolmoment           0.000000      0.000000      0.141946 electrons x Angstroem
 Tr[quadrupol]     -5996.255944

 energy correction for charged system         0.000000 eV
 dipol+quadrupol energy correction           -0.001199 eV
 added-field ion interaction         -0.077539 eV  (added to PSCEN)


 Free energy of the ion-electron system (eV)
  ---------------------------------------------------
  alpha Z        PSCENC =       875.18862269
  Ewald energy   TEWEN  =    140467.92172078
  -Hartree energ DENC   =   -177511.32213278
  -exchange      EXHF   =         0.00000000
  -V(xc)+E(xc)   XCENC  =      1792.32346007
  PAW double counting   =     34678.16886769   -38501.72415119
  entropy T*S    EENTRO =        -0.00000000
  eigenvalues    EBANDS =     -9822.76735785
  atomic energy  EATOM  =     47650.37657287
  ---------------------------------------------------
  free energy    TOTEN  =      -371.83439773 eV

  energy without entropy =     -371.83439773  energy(sigma->0) =     -371.83439773


--------------------------------------------------------------------------------------------------------




--------------------------------------- Iteration      1(  12)  ---------------------------------------


    POTLOK:  cpu time      0.0221: real time      0.0221
    SETDIJ:  cpu time      0.1158: real time      0.1158
    TRIAL :  cpu time      0.5066: real time      0.5067
    CORREC:  cpu time      0.3810: real time      0.3810
    CHARGE:  cpu time      0.0422: real time      0.0422
    --------------------------------------------
      LOOP:  cpu time      1.0716: real time      1.0802

 eigenvalue-minimisations  :     0
 total energy-change (2. order) :-0.2034159E+00  (-0.7003927E-01)
 number of electron     447.9999239 magnetization 
 augmentation part      154.4434145 magnetization 

 DIPCOR: dipole corrections for dipol
 direction  3 min pos     1,
 dipolmoment           0.000000      0.000000      0.147050 electrons x Angstroem
 Tr[quadrupol]     -5996.816942

 energy correction for charged system         0.000000 eV
 dipol+quadrupol energy correction           -0.001287 eV
 added-field ion interaction         -0.080327 eV  (added to PSCEN)


 Free energy of the ion-electron system (eV)
  ---------------------------------------------------
  alpha Z        PSCENC =       875.18097285
  Ewald energy   TEWEN  =    140467.92172078
  -Hartree energ DENC   =   -177530.72912330
  -exchange      EXHF   =         0.00000000
  -V(xc)+E(xc)   XCENC  =      1792.55952998
  PAW double counting   =     34666.06765158   -38487.75057133
  entropy T*S    EENTRO =        -0.00000000
  eigenvalues    EBANDS =     -9805.66456702
  atomic energy  EATOM  =     47650.37657287
  ---------------------------------------------------
  free energy    TOTEN  =      -372.03781358 eV

  energy without entropy =     -372.03781358  energy(sigma->0) =     -372.03781358


--------------------------------------------------------------------------------------------------------




--------------------------------------- Iteration      1(  13)  ---------------------------------------


    POTLOK:  cpu time      0.0221: real time      0.0221
    SETDIJ:  cpu time      0.1156: real time      0.1156
    TRIAL :  cpu time      0.5079: real time      0.5080
    CORREC:  cpu time      0.3798: real time      0.3798
    CHARGE:  cpu time      0.0421: real time      0.0421
    --------------------------------------------
      LOOP:  cpu time      1.0712: real time      1.0800

 eigenvalue-minimisations  :     0
 total energy-change (2. order) :-0.7005850E-01  (-0.3012016E-01)
 number of electron     447.9999239 magnetization 
 augmentation part      154.4760904 magnetization 

 DIPCOR: dipole corrections for dipol
 direction  3 min pos     1,
 dipolmoment           0.000000      0.000000      0.150617 electrons x Angstroem
 Tr[quadrupol]     -5997.153625

 energy correction for charged system         0.000000 eV
 dipol+quadrupol energy correction           -0.001351 eV
 added-field ion interaction         -0.082276 eV  (added to PSCEN)


 Free energy of the ion-electron system (eV)
  ---------------------------------------------------
  alpha Z        PSCENC =       875.17747392
  Ewald energy   TEWEN  =    140467.92172078
  -Hartree energ DENC   =   -177557.00831301
  -exchange      EXHF   =         0.00000000
  -V(xc)+E(xc)   XCENC  =      1792.87572137
  PAW double counting   =     34665.64638328   -38490.20854848
  entropy T*S    EENTRO =        -0.00000000
  eigenvalues    EBANDS =     -9776.88888281
  atomic energy  EATOM  =     47650.37657287
  ---------------------------------------------------
  free energy    TOTEN  =      -372.10787208 eV

  energy without entropy =     -372.10787208  energy(sigma->0) =     -372.10787208


--------------------------------------------------------------------------------------------------------




--------------------------------------- Iteration      1(  14)  ---------------------------------------


    POTLOK:  cpu time      0.0220: real time      0.0220
    SETDIJ:  cpu time      0.1160: real time      0.1160
    TRIAL :  cpu time      0.5056: real time      0.5057
    CORREC:  cpu time      0.3806: real time      0.3807
    CHARGE:  cpu time      0.0425: real time      0.0425
    --------------------------------------------
      LOOP:  cpu time      1.0707: real time      1.0790

 eigenvalue-minimisations  :     0
 total energy-change (2. order) :-0.3013601E-01  (-0.1464724E-01)
 number of electron     447.9999239 magnetization 
 augmentation part      154.4635599 magnetization 

 DIPCOR: dipole corrections for dipol
 direction  3 min pos     1,
 dipolmoment           0.000000      0.000000      0.154672 electrons x Angstroem
 Tr[quadrupol]     -5997.424579

 energy correction for charged system         0.000000 eV
 dipol+quadrupol energy correction           -0.001424 eV
 added-field ion interaction         -0.084491 eV  (added to PSCEN)


 Free energy of the ion-electron system (eV)
  ---------------------------------------------------
  alpha Z        PSCENC =       875.17532241
  Ewald energy   TEWEN  =    140467.92172078
  -Hartree energ DENC   =   -177569.14959206
  -exchange      EXHF   =         0.00000000
  -V(xc)+E(xc)   XCENC  =      1792.90962074
  PAW double counting   =     34666.02212097   -38492.03245716
  entropy T*S    EENTRO =        -0.00000000
  eigenvalues    EBANDS =     -9763.36131664
  atomic energy  EATOM  =     47650.37657287
  ---------------------------------------------------
  free energy    TOTEN  =      -372.13800809 eV

  energy without entropy =     -372.13800809  energy(sigma->0) =     -372.13800809


--------------------------------------------------------------------------------------------------------




--------------------------------------- Iteration      1(  15)  ---------------------------------------


    POTLOK:  cpu time      0.0218: real time      0.0218
    SETDIJ:  cpu time      0.1159: real time      0.1159
    TRIAL :  cpu time      0.5063: real time      0.5065
    CORREC:  cpu time      0.3806: real time      0.3806
    CHARGE:  cpu time      0.0421: real time      0.0421
    --------------------------------------------
      LOOP:  cpu time      1.0791: real time      1.0794

 eigenvalue-minimisations  :     0
 total energy-change (2. order) :-0.1465498E-01  (-0.6241223E-02)
 number of electron     447.9999238 magnetization 
 augmentation part      154.4517663 magnetization 

 DIPCOR: dipole corrections for dipol
 direction  3 min pos     1,
 dipolmoment           0.000000      0.000000      0.158146 electrons x Angstroem
 Tr[quadrupol]     -5997.652840

 energy correction for charged system         0.000000 eV
 dipol+quadrupol energy correction           -0.001489 eV
 added-field ion interaction         -0.086389 eV  (added to PSCEN)


 Free energy of the ion-electron system (eV)
  ---------------------------------------------------
  alpha Z        PSCENC =       875.17289075
  Ewald energy   TEWEN  =    140467.92172078
  -Hartree energ DENC   =   -177577.71517493
  -exchange      EXHF   =         0.00000000
  -V(xc)+E(xc)   XCENC  =      1792.94851236
  PAW double counting   =     34670.26297481   -38495.55040180
  entropy T*S    EENTRO =        -0.00000000
  eigenvalues    EBANDS =     -9755.56975791
  atomic energy  EATOM  =     47650.37657287
  ---------------------------------------------------
  free energy    TOTEN  =      -372.15266307 eV

  energy without entropy =     -372.15266307  energy(sigma->0) =     -372.15266307


--------------------------------------------------------------------------------------------------------




--------------------------------------- Iteration      1(  16)  ---------------------------------------


    POTLOK:  cpu time      0.0221: real time      0.0221
    SETDIJ:  cpu time      0.1156: real time      0.1156
    TRIAL :  cpu time      0.5063: real time      0.5069
    CORREC:  cpu time      0.3809: real time      0.3809
    CHARGE:  cpu time      0.0420: real time      0.0421
    --------------------------------------------
      LOOP:  cpu time      1.0726: real time      1.0797

 eigenvalue-minimisations  :     0
 total energy-change (2. order) :-0.6245580E-02  (-0.2307487E-02)
 number of electron     447.9999238 magnetization 
 augmentation part      154.4488910 magnetization 

 DIPCOR: dipole corrections for dipol
 direction  3 min pos     1,
 dipolmoment           0.000000      0.000000      0.159369 electrons x Angstroem
 Tr[quadrupol]     -5997.768686

 energy correction for charged system         0.000000 eV
 dipol+quadrupol energy correction           -0.001512 eV
 added-field ion interaction         -0.087057 eV  (added to PSCEN)


 Free energy of the ion-electron system (eV)
  ---------------------------------------------------
  alpha Z        PSCENC =       875.17104055
  Ewald energy   TEWEN  =    140467.92172078
  -Hartree energ DENC   =   -177586.62537554
  -exchange      EXHF   =         0.00000000
  -V(xc)+E(xc)   XCENC  =      1793.08751096
  PAW double counting   =     34676.85740713   -38501.44379771
  entropy T*S    EENTRO =        -0.00000000
  eigenvalues    EBANDS =     -9747.50398768
  atomic energy  EATOM  =     47650.37657287
  ---------------------------------------------------
  free energy    TOTEN  =      -372.15890865 eV

  energy without entropy =     -372.15890865  energy(sigma->0) =     -372.15890865


--------------------------------------------------------------------------------------------------------




--------------------------------------- Iteration      1(  17)  ---------------------------------------


    POTLOK:  cpu time      0.0219: real time      0.0219
    SETDIJ:  cpu time      0.1161: real time      0.1161
    TRIAL :  cpu time      0.5058: real time      0.5060
    CORREC:  cpu time      0.3805: real time      0.3805
    CHARGE:  cpu time      0.0418: real time      0.0418
    --------------------------------------------
      LOOP:  cpu time      1.0783: real time      1.0786

 eigenvalue-minimisations  :     0
 total energy-change (2. order) :-0.2305370E-02  (-0.8472135E-03)
 number of electron     447.9999238 magnetization 
 augmentation part      154.4482570 magnetization 

 DIPCOR: dipole corrections for dipol
 direction  3 min pos     1,
 dipolmoment           0.000000      0.000000      0.158776 electrons x Angstroem
 Tr[quadrupol]     -5997.775670

 energy correction for charged system         0.000000 eV
 dipol+quadrupol energy correction           -0.001501 eV
 added-field ion interaction         -0.086733 eV  (added to PSCEN)


 Free energy of the ion-electron system (eV)
  ---------------------------------------------------
  alpha Z        PSCENC =       875.17065096
  Ewald energy   TEWEN  =    140467.92172078
  -Hartree energ DENC   =   -177590.37883342
  -exchange      EXHF   =         0.00000000
  -V(xc)+E(xc)   XCENC  =      1793.14698686
  PAW double counting   =     34680.71811646   -38505.37801401
  entropy T*S    EENTRO =        -0.00000000
  eigenvalues    EBANDS =     -9743.73841451
  atomic energy  EATOM  =     47650.37657287
  ---------------------------------------------------
  free energy    TOTEN  =      -372.16121402 eV

  energy without entropy =     -372.16121402  energy(sigma->0) =     -372.16121402


--------------------------------------------------------------------------------------------------------




--------------------------------------- Iteration      1(  18)  ---------------------------------------


    POTLOK:  cpu time      0.0221: real time      0.0221
    SETDIJ:  cpu time      0.1158: real time      0.1158
    TRIAL :  cpu time      0.5072: real time      0.5074
    CORREC:  cpu time      0.3811: real time      0.3811
    CHARGE:  cpu time      0.0426: real time      0.0426
    --------------------------------------------
      LOOP:  cpu time      1.0726: real time      1.0816

 eigenvalue-minimisations  :     0
 total energy-change (2. order) :-0.8444902E-03  (-0.3180012E-03)
 number of electron     447.9999238 magnetization 
 augmentation part      154.4486027 magnetization 

 DIPCOR: dipole corrections for dipol
 direction  3 min pos     1,
 dipolmoment           0.000000      0.000000      0.157711 electrons x Angstroem
 Tr[quadrupol]     -5997.749178

 energy correction for charged system         0.000000 eV
 dipol+quadrupol energy correction           -0.001481 eV
 added-field ion interaction         -0.086151 eV  (added to PSCEN)


 Free energy of the ion-electron system (eV)
  ---------------------------------------------------
  alpha Z        PSCENC =       875.17116600
  Ewald energy   TEWEN  =    140467.92172078
  -Hartree energ DENC   =   -177589.96344549
  -exchange      EXHF   =         0.00000000
  -V(xc)+E(xc)   XCENC  =      1793.13864463
  PAW double counting   =     34682.49460828   -38507.32381569
  entropy T*S    EENTRO =        -0.00000000
  eigenvalues    EBANDS =     -9743.97750989
  atomic energy  EATOM  =     47650.37657287
  ---------------------------------------------------
  free energy    TOTEN  =      -372.16205851 eV

  energy without entropy =     -372.16205851  energy(sigma->0) =     -372.16205851


--------------------------------------------------------------------------------------------------------




--------------------------------------- Iteration      1(  19)  ---------------------------------------


    POTLOK:  cpu time      0.0216: real time      0.0216
    SETDIJ:  cpu time      0.1165: real time      0.1166
    TRIAL :  cpu time      0.5062: real time      0.5062
    CORREC:  cpu time      0.3815: real time      0.3815
    CHARGE:  cpu time      0.0421: real time      0.0421
    --------------------------------------------
      LOOP:  cpu time      1.0811: real time      1.0815

 eigenvalue-minimisations  :     0
 total energy-change (2. order) :-0.3175551E-03  (-0.1281748E-03)
 number of electron     447.9999238 magnetization 
 augmentation part      154.4487933 magnetization 

 DIPCOR: dipole corrections for dipol
 direction  3 min pos     1,
 dipolmoment           0.000000      0.000000      0.156895 electrons x Angstroem
 Tr[quadrupol]     -5997.720258

 energy correction for charged system         0.000000 eV
 dipol+quadrupol energy correction           -0.001465 eV
 added-field ion interaction         -0.085705 eV  (added to PSCEN)


 Free energy of the ion-electron system (eV)
  ---------------------------------------------------
  alpha Z        PSCENC =       875.17181207
  Ewald energy   TEWEN  =    140467.92172078
  -Hartree energ DENC   =   -177588.87989353
  -exchange      EXHF   =         0.00000000
  -V(xc)+E(xc)   XCENC  =      1793.14151387
  PAW double counting   =     34683.57865624   -38508.37861199
  entropy T*S    EENTRO =        -0.00000000
  eigenvalues    EBANDS =     -9745.09414637
  atomic energy  EATOM  =     47650.37657287
  ---------------------------------------------------
  free energy    TOTEN  =      -372.16237606 eV

  energy without entropy =     -372.16237606  energy(sigma->0) =     -372.16237606


--------------------------------------------------------------------------------------------------------




--------------------------------------- Iteration      1(  20)  ---------------------------------------


    POTLOK:  cpu time      0.0220: real time      0.0220
    SETDIJ:  cpu time      0.1157: real time      0.1158
    TRIAL :  cpu time      0.5065: real time      0.5065
    CORREC:  cpu time      0.3805: real time      0.3806
    CHARGE:  cpu time      0.0426: real time      0.0426
    --------------------------------------------
      LOOP:  cpu time      1.0717: real time      1.0798

 eigenvalue-minimisations  :     0
 total energy-change (2. order) :-0.1283922E-03  (-0.4887645E-04)
 number of electron     447.9999238 magnetization 
 augmentation part      154.4484403 magnetization 

 DIPCOR: dipole corrections for dipol
 direction  3 min pos     1,
 dipolmoment           0.000000      0.000000      0.156567 electrons x Angstroem
 Tr[quadrupol]     -5997.699193

 energy correction for charged system         0.000000 eV
 dipol+quadrupol energy correction           -0.001459 eV
 added-field ion interaction         -0.085526 eV  (added to PSCEN)


 Free energy of the ion-electron system (eV)
  ---------------------------------------------------
  alpha Z        PSCENC =       875.17221712
  Ewald energy   TEWEN  =    140467.92172078
  -Hartree energ DENC   =   -177587.91943065
  -exchange      EXHF   =         0.00000000
  -V(xc)+E(xc)   XCENC  =      1793.14343236
  PAW double counting   =     34683.50922685   -38508.24705904
  entropy T*S    EENTRO =        -0.00000000
  eigenvalues    EBANDS =     -9746.11918474
  atomic energy  EATOM  =     47650.37657287
  ---------------------------------------------------
  free energy    TOTEN  =      -372.16250446 eV

  energy without entropy =     -372.16250446  energy(sigma->0) =     -372.16250446


--------------------------------------------------------------------------------------------------------




--------------------------------------- Iteration      1(  21)  ---------------------------------------


    POTLOK:  cpu time      0.0219: real time      0.0219
    SETDIJ:  cpu time      0.1159: real time      0.1159
    TRIAL :  cpu time      0.5072: real time      0.5073
    CORREC:  cpu time      0.3809: real time      0.3811
    CHARGE:  cpu time      0.0417: real time      0.0417
    --------------------------------------------
      LOOP:  cpu time      1.0797: real time      1.0800

 eigenvalue-minimisations  :     0
 total energy-change (2. order) :-0.4882668E-04  (-0.1603209E-04)
 number of electron     447.9999238 magnetization 
 augmentation part      154.4484664 magnetization 

 DIPCOR: dipole corrections for dipol
 direction  3 min pos     1,
 dipolmoment           0.000000      0.000000      0.156575 electrons x Angstroem
 Tr[quadrupol]     -5997.690648

 energy correction for charged system         0.000000 eV
 dipol+quadrupol energy correction           -0.001459 eV
 added-field ion interaction         -0.085530 eV  (added to PSCEN)


[...]
    312       9.9265      0.00000
    313      10.1003      0.00000
    314      10.1745      0.00000
    315      10.2068      0.00000
    316      10.2186      0.00000
    317      10.2331      0.00000
    318      10.2339      0.00000
    319      10.2344      0.00000
    320      10.4575      0.00000


--------------------------------------------------------------------------------------------------------


 soft charge-density along one line, spin component           1
         0         1         2         3         4         5         6         7         8         9
 total charge-density along one line

 pseudopotential strength for first ion, spin component:           1
-51.763  -0.000  -0.000   7.226   0.000   0.000  -0.000   0.000
 -0.000 -51.819  -0.000   0.000   7.253   0.000  -0.033   0.082
 -0.000  -0.000 -51.763   0.000   0.000   7.226   0.000  -0.000
  7.226   0.000   0.000   4.279   0.000  -0.000  -0.000   0.000
  0.000   7.253   0.000   0.000   4.287  -0.000  -0.004   0.008
  0.000   0.000   7.226  -0.000  -0.000   4.279   0.000  -0.000
 -0.000  -0.033   0.000  -0.000  -0.004   0.000   3.006 -11.092
  0.000   0.082  -0.000   0.000   0.008  -0.000 -11.092  46.250
 -0.000  -0.000   0.000   0.000   0.000  -0.000   0.000  -0.000
  0.009   0.000  -0.000  -0.009  -0.000   0.000   0.000  -0.000
 -0.000   0.010   0.000   0.000  -0.018  -0.000   0.010  -0.019
 -0.000  -0.000   0.009   0.000   0.000  -0.009   0.000  -0.000
 -0.000  -0.000  -0.000   0.000   0.000   0.000   0.000  -0.000
 total augmentation occupancy for first ion, spin component:           1
  2.001  -0.000   0.000  -0.006   0.000   0.000   0.000   0.000   0.000  -0.008   0.000   0.000   0.000
 -0.000   2.002   0.000   0.000   0.000   0.000   0.001   0.004  -0.000  -0.000  -0.014  -0.000   0.000
  0.000   0.000   2.001   0.000   0.000  -0.006   0.000  -0.000  -0.000   0.000  -0.000  -0.008  -0.000
 -0.006   0.000   0.000   0.077  -0.000   0.000   0.000  -0.000   0.000   0.001  -0.000  -0.000  -0.000
  0.000   0.000   0.000  -0.000   0.048   0.000   0.040   0.001   0.000   0.000   0.026   0.000   0.000
  0.000   0.000  -0.006   0.000   0.000   0.077   0.000   0.000  -0.000   0.000  -0.000   0.001   0.000
  0.000   0.001   0.000   0.000   0.040   0.000   0.831   0.013  -0.000  -0.000  -0.040   0.000  -0.000
  0.000   0.004  -0.000  -0.000   0.001   0.000   0.013   0.000  -0.000  -0.000  -0.001   0.000   0.000
  0.000  -0.000  -0.000   0.000   0.000  -0.000  -0.000  -0.000   0.013  -0.000   0.000  -0.000   0.000
 -0.008  -0.000   0.000   0.001   0.000   0.000  -0.000  -0.000  -0.000   0.011  -0.000   0.000   0.000
  0.000  -0.014  -0.000  -0.000   0.026  -0.000  -0.040  -0.001   0.000  -0.000   0.031   0.000   0.000
  0.000  -0.000  -0.008  -0.000   0.000   0.001   0.000   0.000  -0.000   0.000   0.000   0.011   0.000
  0.000   0.000  -0.000  -0.000   0.000   0.000  -0.000   0.000   0.000   0.000   0.000   0.000   0.052


------------------------ aborting loop because EDIFF is reached ----------------------------------------


    FORLOC:  cpu time      0.0023: real time      0.0023
    FORNL :  cpu time      0.2868: real time      0.2871
    STRESS:  cpu time      0.8808: real time      0.8813
    FORCOR:  cpu time      0.0192: real time      0.0192
    OFIELD:  cpu time      0.0001: real time      0.0001

  DFT-D2 method for vdW energy calculation
  -------------------------------------------------------------------

  Parameters of vdW forcefield:
         C6(Jnm^6/mol)     R0(A)
   -----------------------------
   Mg       0.630          1.243
   O        0.700          1.342

  vdW correction parametrized for the method pbe       

  IVDW =   1
  VDW_RADIUS =    50.000 A
  VDW_S6 =     0.750
  VDW_SR =     1.000
  VDW_D =    20.000
  LVDW_EWALD = F

  Number of pair interactions contributing to vdW energy:  723312
  Edisp (eV):   -3.61983
    FORVDW:  cpu time      0.1072: real time      0.1072

  FORCE on cell =-STRESS in cart. coord.  units (eV):
  Direction    XX          YY          ZZ          XY          YZ          ZX
  --------------------------------------------------------------------------------------
  Alpha Z   875.25928   875.25928   875.25928
  Ewald  161112.87060161112.87060************     0.00000     0.00000    -0.00000
  Hartree171172.56816171172.56816************    -0.00000    -0.00000    -0.00000
  E(xc)   -2456.55776 -2456.55776 -2461.82917     0.00000     0.00000     0.00000
  Local  ************************342556.91741    -0.00000    -0.00000    -0.00000
  n-local -2811.59942 -2812.45988 -2832.86299    -0.00000     0.00000    -0.00000
  augment  1047.82674  1047.82674  1038.41818     0.00000    -0.00000     0.00000
  Kinetic  7301.25440  7303.97966  7344.39352     0.00002    -0.00005     0.00000
  Fock        0.00000     0.00000     0.00000     0.00000     0.00000     0.00000
  vdW        -5.28874    -5.28874    -4.29652    -0.00000     0.00000    -0.00000
  -------------------------------------------------------------------------------------
  Total     -24.53132   -24.53132    -0.13708     0.00000     0.00000     0.00000
  in kB     -25.86065   -25.86065    -0.14451     0.00000     0.00000     0.00000
  external pressure =      -17.29 kB  Pullay stress =        0.00 kB


 VOLUME and BASIS-vectors are now :
 -----------------------------------------------------------------------------
  energy-cutoff  :      600.00
  volume of cell :     1519.82
      direct lattice vectors                 reciprocal lattice vectors
     8.440984654  0.000000000  0.000000000     0.118469591  0.000000000  0.000000000
     0.000000000  8.440984654  0.000000000     0.000000000  0.118469591  0.000000000
     0.000000000  0.000000000 21.330738491     0.000000000  0.000000000  0.046880702

  length of vectors
     8.440984654  8.440984654 21.330738491     0.118469591  0.118469591  0.046880702


 FORCES acting on ions:
    Electron-Ion                     Ewald-Force                    Non-Local-Force
 -----------------------------------------------------------------------------------------------
   -.433E-13 0.761E-01 0.207E+04   0.560E-13 -.754E-01 -.206E+04   0.000E+00 -.536E-03 -.704E+01
   -.761E-01 0.114E-12 0.207E+04   0.754E-01 0.671E-13 -.206E+04   0.536E-03 -.529E-22 -.704E+01
   -.554E-13 0.202E-12 0.684E+03   -.150E-10 0.150E-10 -.684E+03   0.000E+00 0.000E+00 0.488E+00
   -.439E+00 0.439E+00 0.683E+03   0.441E+00 -.441E+00 -.684E+03   -.980E-03 0.980E-03 0.525E+00
   -.515E-13 0.276E+00 -.690E+03   0.157E-11 -.271E+00 0.690E+03   0.000E+00 0.103E-02 -.198E+00
   -.276E+00 -.273E-12 -.690E+03   0.271E+00 -.151E-11 0.690E+03   -.103E-02 0.000E+00 -.198E+00
   -.552E-13 0.717E-12 -.205E+04   0.444E-12 -.416E-12 0.204E+04   -.529E-22 0.000E+00 0.594E+01
   -.136E+01 0.136E+01 -.205E+04   0.121E+01 -.121E+01 0.204E+04   0.130E+00 -.130E+00 0.600E+01
   -.442E-13 -.761E-01 0.207E+04   -.277E-12 0.754E-01 -.206E+04   0.000E+00 0.536E-03 -.704E+01
   -.115E+00 0.993E-12 0.207E+04   0.116E+00 0.131E-10 -.206E+04   -.142E-02 0.212E-21 -.704E+01
   -.566E-13 0.123E-11 0.683E+03   -.165E-10 0.000E+00 -.684E+03   -.199E-22 0.000E+00 0.469E+00
   -.439E+00 -.439E+00 0.683E+03   0.441E+00 0.441E+00 -.684E+03   -.980E-03 -.980E-03 0.525E+00
   -.482E-13 -.276E+00 -.690E+03   0.304E-11 0.271E+00 0.690E+03   0.132E-22 -.103E-02 -.198E+00
   -.164E+01 0.761E-12 -.691E+03   0.172E+01 0.178E-14 0.692E+03   -.813E-01 0.529E-22 -.255E+00
   -.276E-13 0.337E-12 -.205E+04   -.355E-13 -.995E-13 0.204E+04   0.132E-22 0.000E+00 0.591E+01
   -.136E+01 -.136E+01 -.205E+04   0.121E+01 0.121E+01 0.204E+04   0.130E+00 0.130E+00 0.600E+01
   0.906E-12 0.115E+00 0.207E+04   -.129E-10 -.116E+00 -.206E+04   0.106E-21 0.142E-02 -.704E+01
   0.761E-01 0.114E-12 0.207E+04   -.754E-01 0.471E-13 -.206E+04   -.536E-03 0.132E-22 -.704E+01
   0.834E-12 -.451E-12 0.683E+03   0.145E-11 0.150E-10 -.684E+03   0.000E+00 0.000E+00 0.469E+00
   0.439E+00 0.439E+00 0.683E+03   -.441E+00 -.441E+00 -.684E+03   0.980E-03 0.980E-03 0.525E+00
   0.820E-12 0.164E+01 -.691E+03   -.141E-11 -.172E+01 0.692E+03   0.265E-22 0.813E-01 -.255E+00
   0.276E+00 -.350E-12 -.690E+03   -.271E+00 -.156E-11 0.690E+03   0.103E-02 0.000E+00 -.198E+00
   0.897E-12 0.919E-12 -.205E+04   0.782E-13 -.355E-14 0.204E+04   -.265E-22 0.000E+00 0.591E+01
   0.136E+01 0.136E+01 -.205E+04   -.121E+01 -.121E+01 0.204E+04   -.130E+00 -.130E+00 0.600E+01
   0.915E-12 -.115E+00 0.207E+04   -.131E-10 0.116E+00 -.206E+04   -.106E-21 -.142E-02 -.704E+01
   0.115E+00 0.640E-12 0.207E+04   -.116E+00 0.131E-10 -.206E+04   0.142E-02 -.529E-22 -.704E+01
   0.842E-12 0.815E-12 0.681E+03   -.782E-13 0.355E-14 -.682E+03   0.000E+00 0.000E+00 0.617E+00
   0.439E+00 -.439E+00 0.683E+03   -.441E+00 0.441E+00 -.684E+03   0.980E-03 -.980E-03 0.525E+00
   0.816E-12 -.164E+01 -.691E+03   -.284E-13 0.172E+01 0.692E+03   0.000E+00 -.813E-01 -.255E+00
   0.164E+01 -.208E-11 -.691E+03   -.172E+01 0.000E+00 0.692E+03   0.813E-01 0.000E+00 -.255E+00
   0.922E-12 0.680E-12 -.207E+04   -.426E-13 -.391E-13 0.206E+04   0.000E+00 0.364E-22 0.635E+01
   0.136E+01 -.136E+01 -.205E+04   -.121E+01 0.121E+01 0.204E+04   -.130E+00 0.130E+00 0.600E+01
   -.580E-13 0.176E+00 0.512E+03   0.409E-13 -.177E+00 -.512E+03   0.000E+00 0.131E-02 -.941E-01
   -.176E+00 0.205E-12 0.512E+03   0.177E+00 0.391E-13 -.512E+03   -.131E-02 0.000E+00 -.941E-01
   -.340E-13 0.137E-11 0.155E+04   0.853E-11 -.844E-11 -.156E+04   0.000E+00 -.993E-22 0.349E+01
   -.724E-01 0.724E-01 0.155E+04   0.725E-01 -.725E-01 -.156E+04   -.681E-04 0.681E-04 0.349E+01
   -.636E-13 0.424E+00 -.156E+04   -.871E-12 -.450E+00 0.156E+04   0.000E+00 0.127E-01 -.512E+01
   -.424E+00 -.431E-12 -.156E+04   0.450E+00 0.881E-12 0.156E+04   -.127E-01 0.000E+00 -.512E+01
   -.440E-13 -.101E-12 -.512E+03   -.853E-13 0.639E-13 0.511E+03   0.000E+00 0.000E+00 0.224E+00
   -.696E+00 0.696E+00 -.511E+03   0.687E+00 -.687E+00 0.511E+03   0.180E-01 -.180E-01 0.326E+00
   -.511E-13 -.176E+00 0.512E+03   0.142E-13 0.177E+00 -.512E+03   0.000E+00 -.131E-02 -.941E-01
   -.413E+00 0.817E-12 0.511E+03   0.385E+00 -.764E-11 -.511E+03   0.390E-01 0.529E-22 -.107E+00
   -.310E-13 0.197E-11 0.155E+04   0.845E-11 -.796E-12 -.156E+04   0.132E-22 0.186E-22 0.349E+01
   -.724E-01 -.724E-01 0.155E+04   0.725E-01 0.725E-01 -.156E+04   -.681E-04 -.681E-04 0.349E+01
   -.594E-13 -.424E+00 -.156E+04   -.774E-12 0.450E+00 0.156E+04   -.265E-22 -.127E-01 -.512E+01
   -.307E+01 0.801E-12 -.156E+04   0.301E+01 0.810E-11 0.156E+04   0.197E+00 0.000E+00 -.480E+01
   -.508E-13 0.631E-12 -.511E+03   -.741E-11 0.711E-14 0.510E+03   0.000E+00 0.000E+00 0.308E+00
   -.696E+00 -.696E+00 -.511E+03   0.687E+00 0.687E+00 0.511E+03   0.180E-01 0.180E-01 0.326E+00
   0.323E-12 0.413E+00 0.511E+03   0.764E-11 -.385E+00 -.511E+03   0.265E-22 -.390E-01 -.107E+00
   0.176E+00 0.199E-12 0.512E+03   -.177E+00 0.142E-13 -.512E+03   0.131E-02 0.000E+00 -.941E-01
   0.390E-12 0.492E-12 0.155E+04   0.845E-12 -.846E-11 -.156E+04   0.000E+00 0.000E+00 0.349E+01
   0.724E-01 0.724E-01 0.155E+04   -.725E-01 -.725E-01 -.156E+04   0.681E-04 0.681E-04 0.349E+01
   0.388E-12 0.307E+01 -.156E+04   -.816E-11 -.301E+01 0.156E+04   0.000E+00 -.197E+00 -.480E+01
   0.424E+00 -.451E-12 -.156E+04   -.450E+00 0.924E-12 0.156E+04   0.127E-01 0.000E+00 -.512E+01
   0.301E-12 0.113E-12 -.511E+03   -.711E-14 0.738E-11 0.510E+03   0.331E-23 0.000E+00 0.308E+00
   0.696E+00 0.696E+00 -.511E+03   -.687E+00 -.687E+00 0.511E+03   -.180E-01 -.180E-01 0.326E+00
   0.323E-12 -.413E+00 0.511E+03   0.763E-11 0.385E+00 -.511E+03   0.414E-23 0.390E-01 -.107E+00
   0.413E+00 0.155E-11 0.511E+03   -.385E+00 -.769E-11 -.511E+03   -.390E-01 -.265E-22 -.107E+00
   0.378E-12 0.795E-12 0.155E+04   0.824E-12 -.838E-12 -.156E+04   0.000E+00 0.000E+00 0.349E+01
   0.724E-01 -.724E-01 0.155E+04   -.725E-01 0.725E-01 -.156E+04   0.681E-04 -.681E-04 0.349E+01
   0.370E-12 -.307E+01 -.156E+04   -.820E-11 0.301E+01 0.156E+04   0.529E-22 0.197E+00 -.480E+01
   0.307E+01 -.171E-11 -.156E+04   -.301E+01 0.819E-11 0.156E+04   -.197E+00 0.106E-21 -.480E+01
   0.321E-12 0.246E-12 -.520E+03   -.497E-13 0.426E-13 0.520E+03   -.414E-24 0.000E+00 -.123E+00
   0.696E+00 -.696E+00 -.511E+03   -.687E+00 0.687E+00 0.511E+03   -.180E-01 0.180E-01 0.326E+00
 -----------------------------------------------------------------------------------------------
   0.269E-10 0.259E-10 0.164E+02   0.178E-12 -.744E-13 0.296E-11   0.347E-16 0.312E-16 -.165E+02


 POSITION                                       TOTAL-FORCE (eV/Angst)
 -----------------------------------------------------------------------------------
      0.00000      6.33074      7.50000        -0.000000      0.000197      0.346875
      2.11025      0.00000      7.50000        -0.000197     -0.000000      0.346875
      0.00000      0.00000      9.61025        -0.000000     -0.000000      0.034683
      2.11025      6.33074      9.61025         0.000744     -0.000744      0.033939
      0.00000      6.33023     11.73368        -0.000000      0.005740      0.043308
      2.11076      0.00000     11.73368        -0.005740     -0.000000      0.043308
      0.00000      0.00000     13.83822        -0.000000     -0.000000      0.005526
      2.10905      6.33193     13.83447        -0.023834      0.023834      0.016264
      0.00000      2.11025      7.50000        -0.000000     -0.000197      0.346875
      2.11025      4.22049      7.50000         0.000294     -0.000000      0.346487
      0.00000      4.22049      9.61025        -0.000000     -0.000000      0.039395
      2.11025      2.11025      9.61025         0.000744      0.000744      0.033939
      0.00000      2.11076     11.73368        -0.000000     -0.005740      0.043308
      2.11344      4.22049     11.73659        -0.005964     -0.000000      0.032854
      0.00000      4.22049     13.83544        -0.000000     -0.000000      0.021119
      2.10905      2.10905     13.83447        -0.023834     -0.023834      0.016264
      4.22049      6.33074      7.50000        -0.000000     -0.000294      0.346487
      6.33074      0.00000      7.50000         0.000197     -0.000000      0.346875
      4.22049      0.00000      9.61025        -0.000000     -0.000000      0.039395
      6.33074      6.33074      9.61025        -0.000744     -0.000744      0.033939
      4.22049      6.32754     11.73659        -0.000000      0.005964      0.032854
      6.33023      0.00000     11.73368         0.005740     -0.000000      0.043308
      4.22049      0.00000     13.83544        -0.000000     -0.000000      0.021119
      6.33193      6.33193     13.83447         0.023834      0.023834      0.016264
      4.22049      2.11025      7.50000        -0.000000      0.000294      0.346487
      6.33074      4.22049      7.50000        -0.000294     -0.000000      0.346487
      4.22049      4.22049      9.61025        -0.000000     -0.000000      0.042765
      6.33074      2.11025      9.61025        -0.000744      0.000744      0.033939
      4.22049      2.11344     11.73659        -0.000000     -0.005964      0.032854
      6.32754      4.22049     11.73659         0.005964     -0.000000      0.032854
      4.22049      4.22049     13.87814        -0.000000     -0.000000     -0.278921
      6.33193      2.10905     13.83447         0.023834     -0.023834      0.016264
      0.00000      6.33074      9.61025        -0.000000      0.000627      0.063333
      2.11025      0.00000      9.61025        -0.000627     -0.000000      0.063333
      0.00000      0.00000      7.50000        -0.000000     -0.000000     -0.516456
      2.11025      6.33074      7.50000        -0.000024      0.000024     -0.515973
      0.00000      6.33258     13.88587        -0.000000     -0.013254     -0.006273
      2.10840      0.00000     13.88587         0.013254     -0.000000     -0.006273
      0.00000      0.00000     11.72785        -0.000000     -0.000000      0.008896
      2.10979      6.33120     11.72890         0.008071     -0.008071      0.008076
      0.00000      2.11025      9.61025        -0.000000     -0.000627      0.063333
      2.11025      4.22049      9.61025         0.010328     -0.000000      0.074300
      0.00000      4.22049      7.50000        -0.000000     -0.000000     -0.515997
      2.11025      2.11025      7.50000        -0.000024     -0.000024     -0.515973
      0.00000      2.10840     13.88587        -0.000000      0.013254     -0.006273
      2.10031      4.22049     13.88381         0.138169     -0.000000      0.072352
      0.00000      4.22049     11.72684        -0.000000     -0.000000      0.023043
      2.10979      2.10979     11.72890         0.008071      0.008071      0.008076
      4.22049      6.33074      9.61025        -0.000000     -0.010328      0.074300
      6.33074      0.00000      9.61025         0.000627     -0.000000      0.063333
      4.22049      0.00000      7.50000        -0.000000     -0.000000     -0.515997
      6.33074      6.33074      7.50000         0.000024      0.000024     -0.515973
      4.22049      6.34068     13.88381        -0.000000     -0.138169      0.072352
      6.33258      0.00000     13.88587        -0.013254     -0.000000     -0.006273
      4.22049      0.00000     11.72684        -0.000000     -0.000000      0.023043
      6.33120      6.33120     11.72890        -0.008071     -0.008071      0.008076
      4.22049      2.11025      9.61025        -0.000000      0.010328      0.074300
      6.33074      4.22049      9.61025        -0.010328     -0.000000      0.074300
      4.22049      4.22049      7.50000        -0.000000     -0.000000     -0.516290
      6.33074      2.11025      7.50000         0.000024     -0.000024     -0.515973
      4.22049      2.10031     13.88381        -0.000000      0.138169      0.072352
      6.34068      4.22049     13.88381        -0.138169     -0.000000      0.072352
      4.22049      4.22049     11.73684        -0.000000     -0.000000      0.022507
      6.33120      2.10979     11.72890        -0.008071      0.008071      0.008076
 -----------------------------------------------------------------------------------
    total drift:                                0.000000      0.000000     -0.026569


--------------------------------------------------------------------------------------------------------



  FREE ENERGIE OF THE ION-ELECTRON SYSTEM (eV)
  ---------------------------------------------------
  free  energy   TOTEN  =      -375.78240983 eV

  energy  without entropy=     -375.78240983  energy(sigma->0) =     -375.78240983



--------------------------------------------------------------------------------------------------------


    POTLOK:  cpu time      0.1540: real time      0.1541


--------------------------------------------------------------------------------------------------------


     LOOP+:  cpu time     33.2130: real time     33.3297
    4ORBIT:  cpu time      0.0000: real time      0.0000

 total amount of memory used by VASP MPI-rank0    69719. kBytes
=======================================================================

   base      :      30000. kBytes
   nonl-proj :      20988. kBytes
   fftplans  :       3857. kBytes
   grid      :       5439. kBytes
   one-center:        129. kBytes
   wavefun   :       9306. kBytes

  
  
 General timing and accounting informations for this job:
 ========================================================
  
                  Total CPU time used (sec):       48.057
                            User time (sec):       46.826
                          System time (sec):        1.231
                         Elapsed time (sec):       50.677
  
                   Maximum memory used (kb):      168256.
                   Average memory used (kb):          N/A
  
                          Minor page faults:        31841
                          Major page faults:            0
                 Voluntary context switches:         6554
