 vasp.6.3.0 20Jan22 (build Apr  1 2022 16:44:48) complex                         
 executed on        HPECrayEX_GCC date 2023.05.17  22:53:06
 running  512 mpi-ranks, with    1 threads/rank
 distrk:  each k-point on  512 cores,    1 groups
 distr:  one band on NCORE=   8 cores,   64 groups


--------------------------------------------------------------------------------------------------------


 INCAR:
   SYSTEM = MgO-rocksalt
   ISMEAR = 0
   SIGMA = 0.05
   EDIFF = 1E-6
   ALGO = ALL
   ISTART = 0
   IBRION = -1
   NSW = 0
   ISYM = 2
   ISIF = 2
   EDIFFG = -0.01
   DIPOL = 0.5 0.5 0.5
   IDIPOL = 3
   LDIPOL = .TRUE.
   LHFCALC = .TRUE.
   GGA = B5
   AEXX = 0.2
   AGGAX = 0.72
   AGGAC = 0.81
   ALDAC = 0.19
   IVDW = 1
   VDW_S6 = 1.05
   VDW_C6 = 1.75 0.70 0.63 0.70
   VDW_R0 = 1.452 1.342 1.243 1.342
   ENCUT = 600
   PREC = Normal
   LASPH = .TRUE.
   LREAL = .FALSE.
   ISPIN = 1
   NELM = 200
   NELMIN = 8
   NCORE = 8
   KPAR = 1
   LWAVE = .FALSE.
   LCHARG = .FALSE.

 POTCAR:    PAW_PBE C 08Apr2002                   
 POTCAR:    PAW_PBE O 08Apr2002                   
 POTCAR:    PAW_PBE Mg_pv 13Apr2007               
 POTCAR:    PAW_PBE O 08Apr2002                   
 -----------------------------------------------------------------------------
|                                                                             |
|           W    W    AA    RRRRR   N    N  II  N    N   GGGG   !!!           |
|           W    W   A  A   R    R  NN   N  II  NN   N  G    G  !!!           |
|           W    W  A    A  R    R  N N  N  II  N N  N  G       !!!           |
|           W WW W  AAAAAA  RRRRR   N  N N  II  N  N N  G  GGG   !            |
|           WW  WW  A    A  R   R   N   NN  II  N   NN  G    G                |
|           W    W  A    A  R    R  N    N  II  N    N   GGGG   !!!           |
|                                                                             |
|     You have selected ISYM=2 for a HF type calculation. This will           |
|     symmetrize the charge density but not the exchange potential. I         |
|     suggest to use ISYM=3 instead. This uses symmetry to obtain the         |
|     orbitals at all k-points in the Brillouin zone, but does not apply      |
|     symmetry to the Hartree potential directly. The resultant charge        |
|     might have lower symmetry than the crystal but, at least, Hartree       |
|     and exchange are fully compatible.                                      |
|                                                                             |
 -----------------------------------------------------------------------------

 POTCAR:    PAW_PBE C 08Apr2002                   
   SHA256 =  253f7b50bb8d59471dbedb8285d89021f4a42ed1a2c5d38a03a736e69125dd95 C/POTCAR              
   COPYR  = (c) Copyright 08Apr2002 Georg Kresse                                                    
   COPYR  = This file is part of the software VASP. Any use, copying, and all other rights are regul
   COPYR  = If you do not have a valid VASP license, you may not use, copy or distribute this file. 
   VRHFIN =C: s2p2                                                                                  
   LEXCH  = PE                                                                                      
   EATOM  =   147.1560 eV,   10.8157 Ry                                                             
                                                                                                    
   TITEL  = PAW_PBE C 08Apr2002                                                                     
   LULTRA =        F    use ultrasoft PP ?                                                          
   IUNSCR =        1    unscreen: 0-lin 1-nonlin 2-no                                               
   RPACOR =    1.200    partial core radius                                                         
   POMASS =   12.011; ZVAL   =    4.000    mass and valenz                                          
   RCORE  =    1.500    outmost cutoff radius                                                       
   RWIGS  =    1.630; RWIGS  =    0.863    wigner-seitz radius (au A)                               
   ENMAX  =  400.000; ENMIN  =  300.000 eV                                                          
   ICORE  =        2    local potential                                                             
   LCOR   =        T    correct aug charges                                                         
   LPAW   =        T    paw PP                                                                      
   EAUG   =  644.873                                                                                
   DEXC   =    0.000                                                                                
   RMAX   =    1.529    core radius for proj-oper                                                   
   RAUG   =    1.300    factor for augmentation sphere                                              
   RDEP   =    1.501    radius for radial grids                                                     
   RDEPT  =    1.300    core radius for aug-charge                                                  
                                                                                                    
   Atomic configuration                                                                             
    4 entries                                                                                       
     n  l   j            E        occ.                                                              
     1  0  0.50      -273.3789   2.0000                                                             
     2  0  0.50       -13.7508   2.0000                                                             
     2  1  0.50        -5.2854   2.0000                                                             
     3  2  1.50        -5.4423   0.0000                                                             
   Description                                                                                      
     l       E           TYP  RCUT    TYP  RCUT                                                     
     0    -13.7508458     23  1.200                                                                 
     0     -8.2022199     23  1.200                                                                 
     1     -5.2854383     23  1.500                                                                 
     1     34.0145650     23  1.500                                                                 
     2     -5.4423304      7  1.500                                                                 
  local pseudopotential read in
  partial core-charges read in
  partial kinetic energy density read in
  atomic valenz-charges read in
  non local Contribution for L=           0  read in
    real space projection operators read in
  non local Contribution for L=           0  read in
    real space projection operators read in
  non local Contribution for L=           1  read in
    real space projection operators read in
  non local Contribution for L=           1  read in
    real space projection operators read in
    PAW grid and wavefunctions read in

   number of l-projection  operators is LMAX  =           4
   number of lm-projection operators is LMMAX =           8

 POTCAR:    PAW_PBE O 08Apr2002                   
   SHA256 =  818f92134a0a090dccd8ba1447fa70422a3b330e708bb4f08108d8ae51209ddf O/POTCAR              
   COPYR  = (c) Copyright 08Apr2002 Georg Kresse                                                    
   COPYR  = This file is part of the software VASP. Any use, copying, and all other rights are regul
   COPYR  = If you do not have a valid VASP license, you may not use, copy or distribute this file. 
   VRHFIN =O: s2p4                                                                                  
   LEXCH  = PE                                                                                      
   EATOM  =   432.3788 eV,   31.7789 Ry                                                             
                                                                                                    
   TITEL  = PAW_PBE O 08Apr2002                                                                     
   LULTRA =        F    use ultrasoft PP ?                                                          
   IUNSCR =        1    unscreen: 0-lin 1-nonlin 2-no                                               
   RPACOR =    1.200    partial core radius                                                         
   POMASS =   16.000; ZVAL   =    6.000    mass and valenz                                          
   RCORE  =    1.520    outmost cutoff radius                                                       
   RWIGS  =    1.550; RWIGS  =    0.820    wigner-seitz radius (au A)                               
   ENMAX  =  400.000; ENMIN  =  300.000 eV                                                          
   ICORE  =        2    local potential                                                             
   LCOR   =        T    correct aug charges                                                         
   LPAW   =        T    paw PP                                                                      
   EAUG   =  605.392                                                                                
   DEXC   =    0.000                                                                                
   RMAX   =    1.553    core radius for proj-oper                                                   
   RAUG   =    1.300    factor for augmentation sphere                                              
   RDEP   =    1.550    radius for radial grids                                                     
   RDEPT  =    1.329    core radius for aug-charge                                                  
                                                                                                    
   Atomic configuration                                                                             
    4 entries                                                                                       
     n  l   j            E        occ.                                                              
     1  0  0.50      -514.6923   2.0000                                                             
     2  0  0.50       -23.9615   2.0000                                                             
     2  1  0.50        -9.0305   4.0000                                                             
     3  2  1.50        -9.5241   0.0000                                                             
   Description                                                                                      
     l       E           TYP  RCUT    TYP  RCUT                                                     
     0    -23.9615318     23  1.200                                                                 
     0     -9.5240782     23  1.200                                                                 
     1     -9.0304911     23  1.520                                                                 
     1      8.1634956     23  1.520                                                                 
     2     -9.5240782      7  1.500                                                                 
  local pseudopotential read in
  partial core-charges read in
  partial kinetic energy density read in
  kinetic energy density of atom read in
  atomic valenz-charges read in
  non local Contribution for L=           0  read in
    real space projection operators read in
  non local Contribution for L=           0  read in
    real space projection operators read in
  non local Contribution for L=           1  read in
    real space projection operators read in
  non local Contribution for L=           1  read in
    real space projection operators read in
    PAW grid and wavefunctions read in

   number of l-projection  operators is LMAX  =           4
   number of lm-projection operators is LMMAX =           8

 POTCAR:    PAW_PBE Mg_pv 13Apr2007               
   SHA256 =  f474ac0dd33840b9ae76c01d57fea79fdf77cdfbb07d5ade72c65f83c709b62b Mg_pv/POTCAR          
   COPYR  = (c) Copyright 13Apr2007 Georg Kresse                                                    
   COPYR  = This file is part of the software VASP. Any use, copying, and all other rights are regul
   COPYR  = If you do not have a valid VASP license, you may not use, copy or distribute this file. 
   VRHFIN =Mg: p6s2                                                                                 
   LEXCH  = PE                                                                                      
   EATOM  =  1056.7344 eV,   77.6678 Ry                                                             
                                                                                                    
   TITEL  = PAW_PBE Mg_pv 13Apr2007                                                                 
   LULTRA =        F    use ultrasoft PP ?                                                          
   IUNSCR =        1    unscreen: 0-lin 1-nonlin 2-no                                               
   RPACOR =    1.500    partial core radius                                                         
   POMASS =   24.305; ZVAL   =    8.000    mass and valenz                                          
   RCORE  =    2.000    outmost cutoff radius                                                       
   RWIGS  =    2.000; RWIGS  =    1.058    wigner-seitz radius (au A)                               
   ENMAX  =  403.929; ENMIN  =  302.947 eV                                                          
   RCLOC  =    1.506    cutoff for local pot                                                        
   LCOR   =        T    correct aug charges                                                         
   LPAW   =        T    paw PP                                                                      
   EAUG   =  758.780                                                                                
   DEXC   =    0.000                                                                                
   RMAX   =    2.045    core radius for proj-oper                                                   
   RAUG   =    1.300    factor for augmentation sphere                                              
   RDEP   =    2.025    radius for radial grids                                                     
   RDEPT  =    1.557    core radius for aug-charge                                                  
                                                                                                    
   Atomic configuration                                                                             
    5 entries                                                                                       
     n  l   j            E        occ.                                                              
     1  0  0.50     -1259.6230   2.0000                                                             
     2  0  0.50       -79.8442   2.0000                                                             
     2  1  1.50       -46.6121   6.0000                                                             
     3  0  0.50        -4.7055   2.0000                                                             
     3  2  1.50        -1.3606   0.0000                                                             
   Description                                                                                      
     l       E           TYP  RCUT    TYP  RCUT                                                     
     1    -46.6121073     23  1.600                                                                 
     1      2.7211652     23  1.600                                                                 
     0     -4.7054661     23  2.000                                                                 
     0     61.2262170     23  2.000                                                                 
     2     -1.3605826     23  2.000                                                                 
  local pseudopotential read in
  partial core-charges read in
  partial kinetic energy density read in
  atomic valenz-charges read in
  non local Contribution for L=           1  read in
    real space projection operators read in
  non local Contribution for L=           1  read in
    real space projection operators read in
  non local Contribution for L=           0  read in
    real space projection operators read in
  non local Contribution for L=           0  read in
    real space projection operators read in
  non local Contribution for L=           2  read in
    real space projection operators read in
    PAW grid and wavefunctions read in

   number of l-projection  operators is LMAX  =           5
   number of lm-projection operators is LMMAX =          13

 POTCAR:    PAW_PBE O 08Apr2002                   
   SHA256 =  818f92134a0a090dccd8ba1447fa70422a3b330e708bb4f08108d8ae51209ddf O/POTCAR              
   COPYR  = (c) Copyright 08Apr2002 Georg Kresse                                                    
   COPYR  = This file is part of the software VASP. Any use, copying, and all other rights are regul
   COPYR  = If you do not have a valid VASP license, you may not use, copy or distribute this file. 
   VRHFIN =O: s2p4                                                                                  
   LEXCH  = PE                                                                                      
   EATOM  =   432.3788 eV,   31.7789 Ry                                                             
                                                                                                    
   TITEL  = PAW_PBE O 08Apr2002                                                                     
   LULTRA =        F    use ultrasoft PP ?                                                          
   IUNSCR =        1    unscreen: 0-lin 1-nonlin 2-no                                               
   RPACOR =    1.200    partial core radius                                                         
   POMASS =   16.000; ZVAL   =    6.000    mass and valenz                                          
   RCORE  =    1.520    outmost cutoff radius                                                       
   RWIGS  =    1.550; RWIGS  =    0.820    wigner-seitz radius (au A)                               
   ENMAX  =  400.000; ENMIN  =  300.000 eV                                                          
   ICORE  =        2    local potential                                                             
   LCOR   =        T    correct aug charges                                                         
   LPAW   =        T    paw PP                                                                      
   EAUG   =  605.392                                                                                
   DEXC   =    0.000                                                                                
   RMAX   =    1.553    core radius for proj-oper                                                   
   RAUG   =    1.300    factor for augmentation sphere                                              
   RDEP   =    1.550    radius for radial grids                                                     
   RDEPT  =    1.329    core radius for aug-charge                                                  
                                                                                                    
   Atomic configuration                                                                             
    4 entries                                                                                       
     n  l   j            E        occ.                                                              
     1  0  0.50      -514.6923   2.0000                                                             
     2  0  0.50       -23.9615   2.0000                                                             
     2  1  0.50        -9.0305   4.0000                                                             
     3  2  1.50        -9.5241   0.0000                                                             
   Description                                                                                      
     l       E           TYP  RCUT    TYP  RCUT                                                     
     0    -23.9615318     23  1.200                                                                 
     0     -9.5240782     23  1.200                                                                 
     1     -9.0304911     23  1.520                                                                 
     1      8.1634956     23  1.520                                                                 
     2     -9.5240782      7  1.500                                                                 
  local pseudopotential read in
  partial core-charges read in
  partial kinetic energy density read in
  kinetic energy density of atom read in
  atomic valenz-charges read in
  non local Contribution for L=           0  read in
    real space projection operators read in
  non local Contribution for L=           0  read in
    real space projection operators read in
  non local Contribution for L=           1  read in
    real space projection operators read in
  non local Contribution for L=           1  read in
    real space projection operators read in
    PAW grid and wavefunctions read in

   number of l-projection  operators is LMAX  =           4
   number of lm-projection operators is LMMAX =           8

 -----------------------------------------------------------------------------
|                                                                             |
|               ----> ADVICE to this user running VASP <----                  |
|                                                                             |
|     You have a (more or less) 'large supercell' and for larger cells it     |
|     might be more efficient to use real-space projection operators.         |
|     Therefore, try LREAL= Auto in the INCAR file.                           |
|     Mind: For very accurate calculation, you might also keep the            |
|     reciprocal projection scheme (i.e. LREAL=.FALSE.).                      |
|                                                                             |
 -----------------------------------------------------------------------------

 -----------------------------------------------------------------------------
|                                                                             |
|               ----> ADVICE to this user running VASP <----                  |
|                                                                             |
|     You enforced a specific xc type in the INCAR file but a different       |
|     type was found in the POTCAR file.                                      |
|     I HOPE YOU KNOW WHAT YOU ARE DOING!                                     |
|                                                                             |
 -----------------------------------------------------------------------------

  PAW_PBE C 08Apr2002                   :
 energy of atom  1       EATOM= -147.1560
 kinetic energy error for atom=    0.0057 (will be added to EATOM!!)
  PAW_PBE O 08Apr2002                   :
 energy of atom  2       EATOM= -432.3788
 kinetic energy error for atom=    0.0168 (will be added to EATOM!!)
  PAW_PBE Mg_pv 13Apr2007               :
 energy of atom  3       EATOM=-1056.7344
 kinetic energy error for atom=    0.0221 (will be added to EATOM!!)
  PAW_PBE O 08Apr2002                   :
 energy of atom  4       EATOM= -432.3788
 kinetic energy error for atom=    0.0168 (will be added to EATOM!!)


 POSCAR:  C  O Mg  O
  positions in direct lattice
  No initial velocities read in
 exchange correlation table for  LEXCH =       12
   RHO(1)=    0.500       N(1)  =     2000
   RHO(2)=  100.500       N(2)  =     4000



--------------------------------------------------------------------------------------------------------


 ion  position               nearest neighbor table
   1  0.500  0.500  0.767-   2 1.15
   2  0.500  0.500  0.821-   1 1.15
   3  0.000  0.750  0.352-  35 2.11  37 2.11  38 2.11  45 2.11  54 2.11
   4  0.250  0.000  0.352-  36 2.11  37 2.11  38 2.11  46 2.11  53 2.11
   5  0.000  0.000  0.451-  37 2.11  36 2.11  35 2.11  43 2.11  52 2.11  41 2.12
   6  0.250  0.750  0.451-  38 2.11  36 2.11  35 2.11  44 2.11  51 2.11  42 2.12
   7  0.000  0.750  0.550-  49 2.11  42 2.11  58 2.11  41 2.11  35 2.12  39 2.15
   8  0.250  0.000  0.550-  57 2.11  50 2.11  42 2.11  41 2.11  36 2.12  40 2.15
   9  0.000  0.000  0.649-  39 2.11  40 2.11  47 2.11  56 2.11  41 2.11
  10  0.250  0.750  0.649-  42 2.11  40 2.11  39 2.11  48 2.11  55 2.11
  11  0.000  0.250  0.352-  43 2.11  37 2.11  45 2.11  46 2.11  62 2.11
  12  0.250  0.500  0.352-  44 2.11  38 2.11  45 2.11  46 2.11  61 2.11
  13  0.000  0.500  0.451-  45 2.11  43 2.11  44 2.11  35 2.11  60 2.11  49 2.12
  14  0.250  0.250  0.451-  46 2.11  43 2.11  44 2.11  36 2.11  59 2.11  50 2.12
  15  0.000  0.250  0.550-  49 2.11  50 2.11  66 2.11  41 2.11  43 2.12  47 2.15
  16  0.250  0.500  0.550-  65 2.11  50 2.11  42 2.11  49 2.11  44 2.13  48 2.15
  17  0.000  0.500  0.649-  48 2.10  64 2.10  49 2.11  47 2.11  39 2.11
  18  0.250  0.250  0.649-  50 2.11  47 2.11  40 2.11  48 2.11  63 2.11
  19  0.500  0.750  0.352-  51 2.11  38 2.11  53 2.11  54 2.11  61 2.11
  20  0.750  0.000  0.352-  52 2.11  37 2.11  53 2.11  54 2.11  62 2.11
  21  0.500  0.000  0.451-  53 2.11  51 2.11  52 2.11  36 2.11  59 2.11  57 2.12
  22  0.750  0.750  0.451-  54 2.11  51 2.11  52 2.11  35 2.11  60 2.11  58 2.12
  23  0.500  0.750  0.550-  65 2.11  58 2.11  42 2.11  57 2.11  51 2.13  55 2.15
  24  0.750  0.000  0.550-  57 2.11  58 2.11  66 2.11  41 2.11  52 2.12  56 2.15
  25  0.500  0.000  0.649-  55 2.10  63 2.10  57 2.11  40 2.11  56 2.11
  26  0.750  0.750  0.649-  58 2.11  56 2.11  39 2.11  55 2.11  64 2.11
  27  0.500  0.250  0.352-  59 2.11  53 2.11  46 2.11  61 2.11  62 2.11
  28  0.750  0.500  0.352-  60 2.11  54 2.11  45 2.11  61 2.11  62 2.11
  29  0.500  0.500  0.451-  61 2.11  51 2.11  59 2.11  60 2.11  44 2.11  65 2.13
  30  0.750  0.250  0.451-  62 2.11  52 2.11  59 2.11  60 2.11  43 2.11  66 2.12
  31  0.500  0.250  0.550-  65 2.11  50 2.11  66 2.11  57 2.11  59 2.13  63 2.15
  32  0.750  0.500  0.550-  65 2.11  58 2.11  66 2.11  49 2.11  60 2.13  64 2.15
  33  0.500  0.500  0.651-  48 2.12  55 2.12  63 2.12  64 2.12  65 2.14
  34  0.750  0.250  0.649-  66 2.11  56 2.11  47 2.11  64 2.11  63 2.11
  35  0.000  0.750  0.451-   3 2.11   5 2.11   6 2.11  13 2.11  22 2.11   7 2.12
  36  0.250  0.000  0.451-   4 2.11   5 2.11   6 2.11  14 2.11  21 2.11   8 2.12
  37  0.000  0.000  0.352-   5 2.11   4 2.11   3 2.11  11 2.11  20 2.11
  38  0.250  0.750  0.352-   6 2.11   4 2.11   3 2.11  12 2.11  19 2.11
  39  0.000  0.750  0.651-   9 2.11  10 2.11  26 2.11  17 2.11   7 2.15
  40  0.250  0.000  0.651-   9 2.11  10 2.11  18 2.11  25 2.11   8 2.15
  41  0.000  0.000  0.550-   9 2.11   8 2.11   7 2.11  15 2.11  24 2.11   5 2.12
  42  0.250  0.750  0.550-  10 2.11   8 2.11   7 2.11  16 2.11  23 2.11   6 2.12
  43  0.000  0.250  0.451-  11 2.11   5 2.11  13 2.11  14 2.11  30 2.11  15 2.12
  44  0.250  0.500  0.451-  12 2.11   6 2.11  13 2.11  14 2.11  29 2.11  16 2.13
  45  0.000  0.500  0.352-  13 2.11  11 2.11  12 2.11   3 2.11  28 2.11
  46  0.250  0.250  0.352-  14 2.11  11 2.11  12 2.11   4 2.11  27 2.11
  47  0.000  0.250  0.651-   9 2.11  18 2.11  34 2.11  17 2.11  15 2.15
  48  0.249  0.500  0.651-  17 2.10  10 2.11  18 2.11  33 2.12  16 2.15
  49  0.000  0.500  0.550-  17 2.11  15 2.11   7 2.11  16 2.11  32 2.11  13 2.12
  50  0.250  0.250  0.550-  18 2.11  15 2.11   8 2.11  16 2.11  31 2.11  14 2.12
  51  0.500  0.750  0.451-  19 2.11   6 2.11  21 2.11  22 2.11  29 2.11  23 2.13
  52  0.750  0.000  0.451-  20 2.11   5 2.11  21 2.11  22 2.11  30 2.11  24 2.12
  53  0.500  0.000  0.352-  21 2.11  19 2.11  20 2.11   4 2.11  27 2.11
  54  0.750  0.750  0.352-  22 2.11  19 2.11  20 2.11   3 2.11  28 2.11
  55  0.500  0.751  0.651-  25 2.10  10 2.11  26 2.11  33 2.12  23 2.15
  56  0.750  0.000  0.651-   9 2.11  26 2.11  34 2.11  25 2.11  24 2.15
  57  0.500  0.000  0.550-  25 2.11  24 2.11   8 2.11  23 2.11  31 2.11  21 2.12
  58  0.750  0.750  0.550-  26 2.11  24 2.11   7 2.11  32 2.11  23 2.11  22 2.12
  59  0.500  0.250  0.451-  27 2.11  21 2.11  14 2.11  29 2.11  30 2.11  31 2.13
  60  0.750  0.500  0.451-  28 2.11  22 2.11  13 2.11  29 2.11  30 2.11  32 2.13
  61  0.500  0.500  0.352-  29 2.11  19 2.11  27 2.11  28 2.11  12 2.11
  62  0.750  0.250  0.352-  30 2.11  20 2.11  27 2.11  28 2.11  11 2.11
  63  0.500  0.249  0.651-  25 2.10  18 2.11  34 2.11  33 2.12  31 2.15
  64  0.751  0.500  0.651-  17 2.10  26 2.11  34 2.11  33 2.12  32 2.15
  65  0.500  0.500  0.550-  16 2.11  23 2.11  31 2.11  32 2.11  29 2.13  33 2.14
  66  0.750  0.250  0.550-  34 2.11  24 2.11  15 2.11  32 2.11  31 2.11  30 2.12

  LATTYP: Found a simple tetragonal cell.
 ALAT       =     8.4409846542
 C/A-ratio  =     2.5270438657
  
  Lattice vectors:
  
 A1 = (   8.4409846542,   0.0000000000,   0.0000000000)
 A2 = (   0.0000000000,   8.4409846542,   0.0000000000)
 A3 = (   0.0000000000,   0.0000000000,  21.3307384906)


Analysis of symmetry for initial positions (statically):
=====================================================================
 Subroutine PRICEL returns:
 Original cell was already a primitive cell.
 

 Routine SETGRP: Setting up the symmetry group for a 
 simple tetragonal supercell.


 Subroutine GETGRP returns: Found  8 space group operations
 (whereof  8 operations were pure point group operations)
 out of a pool of 16 trial point group operations.


The static configuration has the point symmetry C_4v.


Analysis of symmetry for dynamics (positions and initial velocities):
=====================================================================
 Subroutine PRICEL returns:
 Original cell was already a primitive cell.
 

 Routine SETGRP: Setting up the symmetry group for a 
 simple tetragonal supercell.


 Subroutine GETGRP returns: Found  8 space group operations
 (whereof  8 operations were pure point group operations)
 out of a pool of 16 trial point group operations.


The dynamic configuration has the point symmetry C_4v.


 Subroutine INISYM returns: Found  8 space group operations
 (whereof  8 operations are pure point group operations),
 and found     1 'primitive' translations


----------------------------------------------------------------------------------------

                                     Primitive cell                                     

  volume of cell :    1519.8199

  direct lattice vectors                    reciprocal lattice vectors
     8.440984654  0.000000000  0.000000000     0.118469591  0.000000000  0.000000000
     0.000000000  8.440984654  0.000000000     0.000000000  0.118469591  0.000000000
     0.000000000  0.000000000 21.330738491     0.000000000  0.000000000  0.046880702

  length of vectors
     8.440984654  8.440984654 21.330738491     0.118469591  0.118469591  0.046880702

  position of ions in fractional coordinates (direct lattice)
     0.500000000  0.500000000  0.766881102
     0.500000000  0.500000000  0.820644820
     0.000000000  0.750000000  0.351605267
     0.250000000  0.000000000  0.351605267
     0.000000000  0.000000000  0.450535089
     0.250000000  0.750000000  0.450535089
     0.000000000  0.749939268  0.550083239
     0.250060732  0.000000000  0.550083239
     0.000000000  0.000000000  0.648745309
     0.249858327  0.750141673  0.648569547
     0.000000000  0.250000000  0.351605267
     0.250000000  0.500000000  0.351605267
     0.000000000  0.500000000  0.450535089
     0.250000000  0.250000000  0.450535089
     0.000000000  0.250060732  0.550083239
     0.250378379  0.500000000  0.550219524
     0.000000000  0.500000000  0.648615280
     0.249858327  0.249858327  0.648569547
     0.500000000  0.750000000  0.351605267
     0.750000000  0.000000000  0.351605267
     0.500000000  0.000000000  0.450535089
     0.750000000  0.750000000  0.450535089
     0.500000000  0.749621621  0.550219524
     0.749939268  0.000000000  0.550083239
     0.500000000  0.000000000  0.648615280
     0.750141673  0.750141673  0.648569547
     0.500000000  0.250000000  0.351605267
     0.750000000  0.500000000  0.351605267
     0.500000000  0.500000000  0.450535089
     0.750000000  0.250000000  0.450535089
     0.500000000  0.250378379  0.550219524
     0.749621621  0.500000000  0.550219524
     0.500000000  0.500000000  0.650616960
     0.750141673  0.249858327  0.648569547
     0.000000000  0.750000000  0.450535089
     0.250000000  0.000000000  0.450535089
     0.000000000  0.000000000  0.351605267
     0.250000000  0.750000000  0.351605267
     0.000000000  0.750218533  0.650979255
     0.249781467  0.000000000  0.650979255
     0.000000000  0.000000000  0.549809890
     0.249945770  0.750054230  0.549859113
     0.000000000  0.250000000  0.450535089
     0.250000000  0.500000000  0.450535089
     0.000000000  0.500000000  0.351605267
     0.250000000  0.250000000  0.351605267
     0.000000000  0.249781467  0.650979255
     0.248822710  0.500000000  0.650882872
     0.000000000  0.500000000  0.549762666
     0.249945770  0.249945770  0.549859113
     0.500000000  0.750000000  0.450535089
     0.750000000  0.000000000  0.450535089
     0.500000000  0.000000000  0.351605267
     0.750000000  0.750000000  0.351605267
     0.500000000  0.751177290  0.650882872
     0.750218533  0.000000000  0.650979255
     0.500000000  0.000000000  0.549762666
     0.750054230  0.750054230  0.549859113
     0.500000000  0.250000000  0.450535089
     0.750000000  0.500000000  0.450535089
     0.500000000  0.500000000  0.351605267
     0.750000000  0.250000000  0.351605267
     0.500000000  0.248822710  0.650882872
     0.751177290  0.500000000  0.650882872
     0.500000000  0.500000000  0.550231357
     0.750054230  0.249945770  0.549859113

  ion indices of the primitive-cell ions
   primitive index   ion index
                 1           1
                 2           2
                 3           3
                 4           4
                 5           5
                 6           6
                 7           7
                 8           8
                 9           9
                10          10
                11          11
                12          12
                13          13
                14          14
                15          15
                16          16
                17          17
                18          18
                19          19
                20          20
                21          21
                22          22
                23          23
                24          24
                25          25
                26          26
                27          27
                28          28
                29          29
                30          30
                31          31
                32          32
                33          33
                34          34
                35          35
                36          36
                37          37
                38          38
                39          39
                40          40
                41          41
                42          42
                43          43
                44          44
                45          45
                46          46
                47          47
                48          48
                49          49
                50          50
                51          51
                52          52
                53          53
                54          54
                55          55
                56          56
                57          57
                58          58
                59          59
                60          60
                61          61
                62          62
                63          63
                64          64
                65          65
                66          66

----------------------------------------------------------------------------------------



 KPOINTS: pymatgen v2020.8.13 with grid density = 

Automatic generation of k-mesh.
 Grid dimensions read from file:
 generate k-points for:    2    2    1

 Generating k-lattice:

  Cartesian coordinates                     Fractional coordinates (reciprocal lattice)
     0.059234796  0.000000000  0.000000000     0.500000000  0.000000000  0.000000000
     0.000000000  0.059234796  0.000000000     0.000000000  0.500000000  0.000000000
     0.000000000  0.000000000  0.046880702     0.000000000  0.000000000  1.000000000

  Length of vectors
     0.059234796  0.059234796  0.046880702

  Shift w.r.t. Gamma in fractional coordinates (k-lattice)
     0.000000000  0.000000000  0.000000000

 
 Subroutine IBZKPT returns following result:
 ===========================================
 
 Found      3 irreducible k-points:
 
 Following reciprocal coordinates:
            Coordinates               Weight
  0.000000  0.000000  0.000000      1.000000
  0.500000  0.000000  0.000000      2.000000
  0.500000  0.500000  0.000000      1.000000
 
 Following cartesian coordinates:
            Coordinates               Weight
  0.000000  0.000000  0.000000      1.000000
  0.059235  0.000000  0.000000      2.000000
  0.059235  0.059235  0.000000      1.000000
 
 
 Subroutine IBZKPT_HF returns following result:
 ==============================================
 
 Found      4 k-points in 1st BZ
 the following      4 k-points will be used (e.g. in the exchange kernel)
 Following reciprocal coordinates:   # in IRBZ
  0.000000  0.000000  0.000000    0.25000000   1 t-inv F
  0.500000  0.000000  0.000000    0.25000000   2 t-inv F
  0.500000  0.500000  0.000000    0.25000000   3 t-inv F
 -0.000000  0.500000  0.000000    0.25000000   2 t-inv F


--------------------------------------------------------------------------------------------------------




 Dimension of arrays:
   k-points           NKPTS =      3   k-points in BZ     NKDIM =      4   number of bands    NBANDS=    320
   number of dos      NEDOS =    301   number of ions     NIONS =     66
   non local maximal  LDIM  =      5   non local SUM 2l+1 LMDIM =     13
   total plane-waves  NPLWV = 373248
   max r-space proj   IRMAX =      1   max aug-charges    IRDMAX=   5039
   dimension x,y,z NGX =    54 NGY =   54 NGZ =  128
   dimension x,y,z NGXF=   108 NGYF=  108 NGZF=  256
   support grid    NGXF=   108 NGYF=  108 NGZF=  256
   ions per type =               1   1  32  32
   NGX,Y,Z   is equivalent  to a cutoff of  10.64, 10.64,  9.98 a.u.
   NGXF,Y,Z  is equivalent  to a cutoff of  21.27, 21.27, 19.95 a.u.

 SYSTEM =  MgO-rocksalt                            
 POSCAR =   C  O Mg  O                             

 Startparameter for this run:
   NWRITE =      2    write-flag & timer
   PREC   = normal    normal or accurate (medium, high low for compatibility)
   ISTART =      0    job   : 0-new  1-cont  2-samecut
   ICHARG =      2    charge: 1-file 2-atom 10-const
   ISPIN  =      1    spin polarized calculation?
   LNONCOLLINEAR =      F non collinear calculations
   LSORBIT =      F    spin-orbit coupling
   INIWAV =      1    electr: 0-lowe 1-rand  2-diag
   LASPH  =      T    aspherical Exc in radial PAW
 Electronic Relaxation 1
   ENCUT  =  600.0 eV  44.10 Ry    6.64 a.u.  16.86 16.86 42.60*2*pi/ulx,y,z
   ENINI  =  600.0     initial cutoff
   ENAUG  =  758.8 eV  augmentation charge cutoff
   NELM   =    200;   NELMIN=  8; NELMDL= -5     # of ELM steps 
   EDIFF  = 0.1E-05   stopping-criterion for ELM
   LREAL  =      F    real-space projection
   NLSPLINE    = F    spline interpolate recip. space projectors
   LCOMPAT=      F    compatible to vasp.4.4
   GGA_COMPAT  = T    GGA compatible to vasp.4.4-vasp.4.6
   LMAXPAW     = -100 max onsite density
   LMAXMIX     =    2 max onsite mixed and CHGCAR
   VOSKOWN=      0    Vosko Wilk Nusair interpolation
   ROPT   =    0.00000   0.00000   0.00000   0.00000
 Ionic relaxation
   EDIFFG = -.1E-01   stopping-criterion for IOM
   NSW    =      0    number of steps for IOM
   NBLOCK =      1;   KBLOCK =      1    inner block; outer block 
   IBRION =     -1    ionic relax: 0-MD 1-quasi-New 2-CG
   NFREE  =      0    steps in history (QN), initial steepest desc. (CG)
   ISIF   =      2    stress and relaxation
   IWAVPR =     10    prediction:  0-non 1-charg 2-wave 3-comb
   ISYM   =      2    0-nonsym 1-usesym 2-fastsym
   LCORR  =      T    Harris-Foulkes like correction to forces

   POTIM  = 0.5000    time-step for ionic-motion
   TEIN   =    0.0    initial temperature
   TEBEG  =    0.0;   TEEND  =   0.0 temperature during run
   SMASS  =  -3.00    Nose mass-parameter (am)
   estimated Nose-frequenzy (Omega)   =  0.10E-29 period in steps = 0.13E+47 mass=  -0.163E-26a.u.
   SCALEE = 1.0000    scale energy and forces
   NPACO  =    256;   APACO  = 10.0  distance and # of slots for P.C.
   PSTRESS=    0.0 pullay stress

  Mass of Ions in am
   POMASS =  12.01 16.00 24.30 16.00
  Ionic Valenz
   ZVAL   =   4.00  6.00  8.00  6.00
  Atomic Wigner-Seitz radii
   RWIGS  =  -1.00 -1.00 -1.00 -1.00
  virtual crystal weights 
   VCA    =   1.00  1.00  1.00  1.00
   NELECT =     458.0000    total number of electrons
   NUPDOWN=      -1.0000    fix difference up-down

 DOS related values:
   EMIN   =  10.00;   EMAX   =-10.00  energy-range for DOS
   EFERMI =   0.00
   ISMEAR =     0;   SIGMA  =   0.05  broadening in eV -4-tet -1-fermi 0-gaus

 Electronic relaxation 2 (details)
   IALGO  =     58    algorithm
   LDIAG  =      T    sub-space diagonalisation (order eigenvalues)
   LSUBROT=      F    optimize rotation matrix (better conditioning)
   TURBO    =      0    0=normal 1=particle mesh
   IRESTART =      0    0=no restart 2=restart with 2 vectors
   NREBOOT  =      0    no. of reboots
   NMIN     =      0    reboot dimension
   EREF     =   0.00    reference energy to select bands
   IMIX   =      4    mixing-type and parameters
     AMIX     =   0.40;   BMIX     =  1.00
     AMIX_MAG =   1.60;   BMIX_MAG =  1.00
     AMIN     =   0.10
     WC   =   100.;   INIMIX=   1;  MIXPRE=   1;  MAXMIX= -45

 Intra band minimization:
   WEIMIN = 0.0000     energy-eigenvalue tresh-hold
   EBREAK =  0.78E-09  absolut break condition
   DEPER  =   0.30     relativ break condition  

   TIME   =   0.40     timestep for ELM

  volume/ion in A,a.u.               =      23.03       155.40
  Fermi-wavevector in a.u.,A,eV,Ry     =   1.097571  2.074108 16.390423  1.204662
  Thomas-Fermi vector in A             =   2.233933

 Write flags
   LWAVE        =      F    write WAVECAR
   LDOWNSAMPLE  =      F    k-point downsampling of WAVECAR
   LCHARG       =      F    write CHGCAR
   LVTOT        =      F    write LOCPOT, total local potential
   LVHAR        =      F    write LOCPOT, Hartree potential only
   LELF         =      F    write electronic localiz. function (ELF)
   LORBIT       =      0    0 simple, 1 ext, 2 COOP (PROOUT), +10 PAW based schemes


 Dipole corrections
   LMONO  =      F    monopole corrections only (constant potential shift)
   LDIPOL =      T    correct potential (dipole corrections)
   IDIPOL =      3    1-x, 2-y, 3-z, 4-all directions 
   EPSILON=  1.0000000 bulk dielectric constant

 Exchange correlation treatment:
   GGA     =    B5    GGA type
   LEXCH   =    12    internal setting for exchange type
   LIBXC   =     F    Libxc                    
   VOSKOWN =     0    Vosko Wilk Nusair interpolation
   EXXOEP  =     0    0=HF, 1=EXX-LHF (local Hartree Fock) 2=EXX OEP
   LHFCALC =     T    Hartree Fock is set to
   LSYMGRAD=     F    symmetrize gradient (conserves proper symmetry)
   PRECFOCK=normal    Normal, Fast or Accurate (Low or Medium for compatibility)
   LRHFCALC=     F    long range Hartree Fock
   LRSCOR  =     F    long range correlation only (use DFT for short range part)
   LTHOMAS =     F    Thomas Fermi screening in HF
   LMODELHF=     F    short range full HF, long range fraction AEXX
   LFOCKACE=     T    use Adeptively-Compressed-Exchange operator
   ENCUT4O =  -1.0   cutoff for four orbital integrals eV
   LMAXFOCK=     4    L truncation for augmentation on plane wave grid
   LMAXFOCKAE=  -1    L truncation for all-electron charge restoration on plane wave grid
   NMAXFOCKAE=   1    number of basis functions for all-electron charge restoration
   LFOCKAEDFT=     F  apply the AE augmentation even for DFT
   NKREDX  =     1    reduce k-point grid by
   NKREDY  =     1    reduce k-point grid by
   NKREDZ  =     1    reduce k-point grid by
   SHIFTRED=     F    shift reduced grid of Gamma
   HFKIDENT=     F    idential grid for each k-point
   ODDONLY =     F    use only odd q-grid points
   EVENONLY=     F    use only even q-grid points
   HFALPHA =   -1.0000 decay constant for conv. correction
   MCALPHA =    0.0000 extent of test-charge in conv. correction in multipole expansion
   AEXX    =    0.2000 exact exchange contribution
   HFSCREEN=    0.0000 screening length (either q_TF or 0.3 A-1)
   HFSCREENC=   0.0000 screening length for correlation (either q_TF or 0.3 A-1)
   HFRCUT  =    0.0000 spherical cutoff for potential kernel
   ALDAX   =    0.8000 LDA exchange part
   AGGAX   =    0.7200 GGA exchange part
   ALDAC   =    0.1900 LDA correlation
   AGGAC   =    0.8100 GGA correlation
   ENCUTFOCK=  -1.0 apply spherical cutoff to Coloumb kernel
   NBANDSGWLOW=     1    first orbital included in HF term
   NBLOCK_FOCK=    64    blocking factor in FOCK_ACC

 Linear response parameters
   LEPSILON=     F    determine dielectric tensor
   LRPA    =     F    only Hartree local field effects (RPA)
   LNABLA  =     F    use nabla operator in PAW spheres
   LVEL    =     F    velocity operator in full k-point grid
   CSHIFT  =0.1000    complex shift for real part using Kramers Kronig
   OMEGAMAX=  -1.0    maximum frequency
   DEG_THRESHOLD= 0.2000000E-02 threshold for treating states as degnerate
   RTIME   =   -0.100 relaxation time in fs
  (WPLASMAI=    0.000 imaginary part of plasma frequency in eV, 0.658/RTIME)
   DFIELD  = 0.0000000 0.0000000 0.0000000 field for delta impulse in time

  Optional k-point grid parameters
   LKPOINTS_OPT  =     F    use optional k-point grid
   KPOINTS_OPT_MODE=     1    mode for optional k-point grid

 Orbital magnetization related:
   ORBITALMAG=     F  switch on orbital magnetization
   LCHIMAG   =     F  perturbation theory with respect to B field
   DQ        =  0.001000  dq finite difference perturbation B field
   LLRAUG    =     F  two centre corrections for induced B field



--------------------------------------------------------------------------------------------------------


 Static calculation
 charge density and potential will be updated during run
 non-spin polarized calculation
 Conjugate gradient for all bands (Freysoldt, et al. PRB 79, 241103 (2009))
 preconditioned conjugated gradient                                        
 perform sub-space diagonalisation
    before iterative eigenvector-optimisation
 modified Broyden-mixing scheme, WC =      100.0
 initial mixing is a Kerker type mixing with AMIX =  0.4000 and BMIX =      1.0000
 Hartree-type preconditioning will be used
 using additional bands           91
 reciprocal scheme for non local part
 use partial core corrections
 no Harris-corrections to forces 
 use gradient corrections 
 use of overlap-Matrix (Vanderbilt PP)
 Gauss-broadening in eV      SIGMA  =   0.05


--------------------------------------------------------------------------------------------------------


  energy-cutoff  :      600.00
  volume of cell :     1519.82
      direct lattice vectors                 reciprocal lattice vectors
     8.440984654  0.000000000  0.000000000     0.118469591  0.000000000  0.000000000
     0.000000000  8.440984654  0.000000000     0.000000000  0.118469591  0.000000000
     0.000000000  0.000000000 21.330738491     0.000000000  0.000000000  0.046880702

  length of vectors
     8.440984654  8.440984654 21.330738491     0.118469591  0.118469591  0.046880702



 k-points in units of 2pi/SCALE and weight: pymatgen v2020.8.13 with grid density = 
   0.00000000  0.00000000  0.00000000       0.250
   0.05923480  0.00000000  0.00000000       0.500
   0.05923480  0.05923480  0.00000000       0.250

 k-points in reciprocal lattice and weights: pymatgen v2020.8.13 with grid density = 
   0.00000000  0.00000000  0.00000000       0.250
   0.50000000  0.00000000  0.00000000       0.500
   0.50000000  0.50000000  0.00000000       0.250

 position of ions in fractional coordinates (direct lattice) 
   0.50000000  0.50000000  0.76688110
   0.50000000  0.50000000  0.82064482
   0.00000000  0.75000000  0.35160527
   0.25000000  0.00000000  0.35160527
   0.00000000  0.00000000  0.45053509
   0.25000000  0.75000000  0.45053509
   0.00000000  0.74993927  0.55008324
   0.25006073  0.00000000  0.55008324
   0.00000000  0.00000000  0.64874531
   0.24985833  0.75014167  0.64856955
   0.00000000  0.25000000  0.35160527
   0.25000000  0.50000000  0.35160527
   0.00000000  0.50000000  0.45053509
   0.25000000  0.25000000  0.45053509
   0.00000000  0.25006073  0.55008324
   0.25037838  0.50000000  0.55021952
   0.00000000  0.50000000  0.64861528
   0.24985833  0.24985833  0.64856955
   0.50000000  0.75000000  0.35160527
   0.75000000  0.00000000  0.35160527
   0.50000000  0.00000000  0.45053509
   0.75000000  0.75000000  0.45053509
   0.50000000  0.74962162  0.55021952
   0.74993927  0.00000000  0.55008324
   0.50000000  0.00000000  0.64861528
   0.75014167  0.75014167  0.64856955
   0.50000000  0.25000000  0.35160527
   0.75000000  0.50000000  0.35160527
   0.50000000  0.50000000  0.45053509
   0.75000000  0.25000000  0.45053509
   0.50000000  0.25037838  0.55021952
   0.74962162  0.50000000  0.55021952
   0.50000000  0.50000000  0.65061696
   0.75014167  0.24985833  0.64856955
   0.00000000  0.75000000  0.45053509
   0.25000000  0.00000000  0.45053509
   0.00000000  0.00000000  0.35160527
   0.25000000  0.75000000  0.35160527
   0.00000000  0.75021853  0.65097926
   0.24978147  0.00000000  0.65097926
   0.00000000  0.00000000  0.54980989
   0.24994577  0.75005423  0.54985911
   0.00000000  0.25000000  0.45053509
   0.25000000  0.50000000  0.45053509
   0.00000000  0.50000000  0.35160527
   0.25000000  0.25000000  0.35160527
   0.00000000  0.24978147  0.65097926
   0.24882271  0.50000000  0.65088287
   0.00000000  0.50000000  0.54976267
   0.24994577  0.24994577  0.54985911
   0.50000000  0.75000000  0.45053509
   0.75000000  0.00000000  0.45053509
   0.50000000  0.00000000  0.35160527
   0.75000000  0.75000000  0.35160527
   0.50000000  0.75117729  0.65088287
   0.75021853  0.00000000  0.65097926
   0.50000000  0.00000000  0.54976267
   0.75005423  0.75005423  0.54985911
   0.50000000  0.25000000  0.45053509
   0.75000000  0.50000000  0.45053509
   0.50000000  0.50000000  0.35160527
   0.75000000  0.25000000  0.35160527
   0.50000000  0.24882271  0.65088287
   0.75117729  0.50000000  0.65088287
   0.50000000  0.50000000  0.55023136
   0.75005423  0.24994577  0.54985911

 position of ions in cartesian coordinates  (Angst):
   4.22049233  4.22049233 16.35814023
   4.22049233  4.22049233 17.50496005
   0.00000000  6.33073849  7.50000000
   2.11024616  0.00000000  7.50000000
   0.00000000  0.00000000  9.61024616
   2.11024616  6.33073849  9.61024616
   0.00000000  6.33022585 11.73368172
   2.11075880  0.00000000 11.73368172
   0.00000000  0.00000000 13.83821654
   2.10905031  6.33193435 13.83446740
   0.00000000  2.11024616  7.50000000
   2.11024616  4.22049233  7.50000000
   0.00000000  4.22049233  9.61024616
   2.11024616  2.11024616  9.61024616
   0.00000000  2.11075880 11.73368172
   2.11344006  4.22049233 11.73658877
   0.00000000  4.22049233 13.83544293
   2.10905031  2.10905031 13.83446740
   4.22049233  6.33073849  7.50000000
   6.33073849  0.00000000  7.50000000
   4.22049233  0.00000000  9.61024616
   6.33073849  6.33073849  9.61024616
   4.22049233  6.32754460 11.73658877
   6.33022585  0.00000000 11.73368172
   4.22049233  0.00000000 13.83544293
   6.33193435  6.33193435 13.83446740
   4.22049233  2.11024616  7.50000000
   6.33073849  4.22049233  7.50000000
   4.22049233  4.22049233  9.61024616
   6.33073849  2.11024616  9.61024616
   4.22049233  2.11344006 11.73658877
   6.32754460  4.22049233 11.73658877
   4.22049233  4.22049233 13.87814023
   6.33193435  2.10905031 13.83446740
   0.00000000  6.33073849  9.61024616
   2.11024616  0.00000000  9.61024616
   0.00000000  0.00000000  7.50000000
   2.11024616  6.33073849  7.50000000
   0.00000000  6.33258312 13.88586825
   2.10840153  0.00000000 13.88586825
   0.00000000  0.00000000 11.72785099
   2.10978841  6.33119624 11.72890095
   0.00000000  2.11024616  9.61024616
   2.11024616  4.22049233  9.61024616
   0.00000000  4.22049233  7.50000000
   2.11024616  2.11024616  7.50000000
   0.00000000  2.10840153 13.88586825
   2.10030867  4.22049233 13.88381232
   0.00000000  4.22049233 11.72684365
   2.10978841  2.10978841 11.72890095
   4.22049233  6.33073849  9.61024616
   6.33073849  0.00000000  9.61024616
   4.22049233  0.00000000  7.50000000
   6.33073849  6.33073849  7.50000000
   4.22049233  6.34067598 13.88381232
   6.33258312  0.00000000 13.88586825
   4.22049233  0.00000000 11.72684365
   6.33119624  6.33119624 11.72890095
   4.22049233  2.11024616  9.61024616
   6.33073849  4.22049233  9.61024616
   4.22049233  4.22049233  7.50000000
   6.33073849  2.11024616  7.50000000
   4.22049233  2.10030867 13.88381232
   6.34067598  4.22049233 13.88381232
   4.22049233  4.22049233 11.73684118
   6.33119624  2.10978841 11.72890095



--------------------------------------------------------------------------------------------------------


 k-point   1 :   0.0000 0.0000 0.0000  plane waves:   50745
 k-point   2 :   0.5000 0.0000 0.0000  plane waves:   50798
 k-point   3 :   0.5000 0.5000 0.0000  plane waves:   50752

 maximum and minimum number of plane-waves per node :      6394     6276

 maximum number of plane-waves:     50798
 maximum index in each direction: 
   IXMAX=   16   IYMAX=   16   IZMAX=   42
   IXMIN=  -17   IYMIN=  -17   IZMIN=  -42


 parallel 3D FFT for wavefunctions:
    minimum data exchange during FFTs selected (reduces bandwidth)
 parallel 3D FFT for charge:
    minimum data exchange during FFTs selected (reduces bandwidth)


 Radii for the augmentation spheres in the non-local exchange
 for species   1 augmentation radius   0.874 (default was   0.699)
       energy cutoff for augmentation   2400.0
 for species   2 augmentation radius   0.902 (default was   0.722)
       energy cutoff for augmentation   2400.0
 for species   3 augmentation radius   1.037 (default was   0.829)
       energy cutoff for augmentation   2400.0
 for species   4 augmentation radius   0.902 (default was   0.722)
       energy cutoff for augmentation   2400.0

 real space projection operators:
  total allocation   :       8962.03 KBytes
  max/ min on nodes  :       1251.34        827.61

 Maximum index for augmentation-charges in exchange          164
  SETUP_FOCK is finished

 total amount of memory used by VASP MPI-rank0    60467. kBytes
=======================================================================

   base      :      30000. kBytes
   nonl-proj :      14893. kBytes
   fftplans  :       3932. kBytes
   grid      :       3944. kBytes
   one-center:         73. kBytes
   HF        :        101. kBytes
   nonlr-proj:       2778. kBytes
   wavefun   :       4746. kBytes

     INWAV:  cpu time      0.0001: real time      0.0003
 Broyden mixing: mesh for mixing (old mesh)
   NGX = 33   NGY = 33   NGZ = 85
  (NGX  =108   NGY  =108   NGZ  =256)
  gives a total of  92565 points

 initial charge density was supplied:
 charge density of overlapping atoms calculated
 number of electron     458.0000000 magnetization 
 keeping initial charge density in first step


--------------------------------------------------------------------------------------------------------


 Maximum index for augmentation-charges          334 (set IRDMAX)


--------------------------------------------------------------------------------------------------------


    FEWALD:  cpu time      0.0027: real time      0.0027


--------------------------------------- Iteration      1(   1)  ---------------------------------------


    POTLOK:  cpu time      0.0701: real time      0.0707
    SETDIJ:  cpu time      0.1932: real time      0.1932
    TRIAL :  cpu time     18.6326: real time     18.7279
    CORREC:  cpu time      0.0012: real time      0.0013
    --------------------------------------------
      LOOP:  cpu time     18.9002: real time     18.9963

 eigenvalue-minimisations  :  2304
 total energy-change (2. order) : 0.1341160E+04  (-0.3092997E+05)
 number of electron     458.0000000 magnetization 
 augmentation part      458.0000000 magnetization 

 DIPCOR: dipole corrections for dipol
 direction  3 min pos     1,
 dipolmoment           0.000000      0.000000     -0.000285 electrons x Angstroem
 Tr[quadrupol]     -6318.707560

 energy correction for charged system         0.000000 eV
 dipol+quadrupol energy correction           -0.000000 eV
 added-field ion interaction          0.002320 eV  (added to PSCEN)


 Free energy of the ion-electron system (eV)
  ---------------------------------------------------
  alpha Z        PSCENC =       907.96642378
  Ewald energy   TEWEN  =    137053.32929587
  -Hartree energ DENC   =   -173152.41922951
  -exchange      EXHF   =         0.00000000
  -V(xc)+E(xc)   XCENC  =      1789.17562422
  PAW double counting   =     32310.01086261   -38519.19434489
  entropy T*S    EENTRO =        -0.01444493
  eigenvalues    EBANDS =     -7243.38836164
  atomic energy  EATOM  =     48195.69443388
  ---------------------------------------------------
  free energy    TOTEN  =      1341.16025940 eV

  energy without entropy =     1341.17470433  energy(sigma->0) =     1341.16748186
  exchange ACFDT corr.  =         0.00000000  see jH, gK, PRB 81, 115126


--------------------------------------------------------------------------------------------------------




--------------------------------------- Iteration      1(   2)  ---------------------------------------


    TRIAL :  cpu time      2.8372: real time      2.8374
    CORREC:  cpu time      0.0003: real time      0.0003
    --------------------------------------------
      LOOP:  cpu time      2.8446: real time      2.8526

 eigenvalue-minimisations  :  2304
 total energy-change (2. order) :-0.4303285E+04  (-0.4231556E+04)
 number of electron     458.0000000 magnetization 
 augmentation part      458.0000000 magnetization 

 DIPCOR: dipole corrections for dipol
 direction  3 min pos     1,
 dipolmoment           0.000000      0.000000     -0.000285 electrons x Angstroem
 Tr[quadrupol]     -6318.707560

 energy correction for charged system         0.000000 eV
 dipol+quadrupol energy correction           -0.000000 eV
 added-field ion interaction          0.002320 eV  (added to PSCEN)


 Free energy of the ion-electron system (eV)
  ---------------------------------------------------
  alpha Z        PSCENC =       907.96642378
  Ewald energy   TEWEN  =    137053.32929587
  -Hartree energ DENC   =   -173152.41922951
  -exchange      EXHF   =         0.00000000
  -V(xc)+E(xc)   XCENC  =      1789.17562422
  PAW double counting   =     32310.01086261   -38519.19434489
  entropy T*S    EENTRO =        -0.00000000
  eigenvalues    EBANDS =    -11546.68737604
  atomic energy  EATOM  =     48195.69443388
  ---------------------------------------------------
  free energy    TOTEN  =     -2962.12431008 eV

  energy without entropy =    -2962.12431008  energy(sigma->0) =    -2962.12431008
  exchange ACFDT corr.  =         0.00000000  see jH, gK, PRB 81, 115126


--------------------------------------------------------------------------------------------------------




--------------------------------------- Iteration      1(   3)  ---------------------------------------


    TRIAL :  cpu time      3.0150: real time      3.0151
    CORREC:  cpu time      0.0003: real time      0.0003
    --------------------------------------------
      LOOP:  cpu time      3.0212: real time      3.0307

 eigenvalue-minimisations  :  2304
 total energy-change (2. order) :-0.3161592E+03  (-0.3140141E+03)
 number of electron     458.0000000 magnetization 
 augmentation part      458.0000000 magnetization 

 DIPCOR: dipole corrections for dipol
 direction  3 min pos     1,
 dipolmoment           0.000000      0.000000     -0.000285 electrons x Angstroem
 Tr[quadrupol]     -6318.707560

 energy correction for charged system         0.000000 eV
 dipol+quadrupol energy correction           -0.000000 eV
 added-field ion interaction          0.002320 eV  (added to PSCEN)


 Free energy of the ion-electron system (eV)
  ---------------------------------------------------
  alpha Z        PSCENC =       907.96642378
  Ewald energy   TEWEN  =    137053.32929587
  -Hartree energ DENC   =   -173152.41922951
  -exchange      EXHF   =         0.00000000
  -V(xc)+E(xc)   XCENC  =      1789.17562422
  PAW double counting   =     32310.01086261   -38519.19434489
  entropy T*S    EENTRO =        -0.00000000
  eigenvalues    EBANDS =    -11862.84655887
  atomic energy  EATOM  =     48195.69443388
  ---------------------------------------------------
  free energy    TOTEN  =     -3278.28349290 eV

  energy without entropy =    -3278.28349290  energy(sigma->0) =    -3278.28349290
  exchange ACFDT corr.  =         0.00000000  see jH, gK, PRB 81, 115126


--------------------------------------------------------------------------------------------------------




--------------------------------------- Iteration      1(   4)  ---------------------------------------


    TRIAL :  cpu time      3.1531: real time      3.1536
    CORREC:  cpu time      0.0003: real time      0.0003
    --------------------------------------------
      LOOP:  cpu time      3.1675: real time      3.1684

 eigenvalue-minimisations  :  2368
 total energy-change (2. order) :-0.6178496E+01  (-0.6171558E+01)
 number of electron     458.0000000 magnetization 
 augmentation part      458.0000000 magnetization 

 DIPCOR: dipole corrections for dipol
 direction  3 min pos     1,
 dipolmoment           0.000000      0.000000     -0.000285 electrons x Angstroem
 Tr[quadrupol]     -6318.707560

 energy correction for charged system         0.000000 eV
 dipol+quadrupol energy correction           -0.000000 eV
 added-field ion interaction          0.002320 eV  (added to PSCEN)


 Free energy of the ion-electron system (eV)
  ---------------------------------------------------
  alpha Z        PSCENC =       907.96642378
  Ewald energy   TEWEN  =    137053.32929587
  -Hartree energ DENC   =   -173152.41922951
  -exchange      EXHF   =         0.00000000
  -V(xc)+E(xc)   XCENC  =      1789.17562422
  PAW double counting   =     32310.01086261   -38519.19434489
  entropy T*S    EENTRO =        -0.00000000
  eigenvalues    EBANDS =    -11869.02505460
  atomic energy  EATOM  =     48195.69443388
  ---------------------------------------------------
  free energy    TOTEN  =     -3284.46198863 eV

  energy without entropy =    -3284.46198863  energy(sigma->0) =    -3284.46198863
  exchange ACFDT corr.  =         0.00000000  see jH, gK, PRB 81, 115126


--------------------------------------------------------------------------------------------------------




--------------------------------------- Iteration      1(   5)  ---------------------------------------


    POTLOK:  cpu time      0.1154: real time      0.1154
    SETDIJ:  cpu time      0.6334: real time      0.6334
    TRIAL :  cpu time     72.7032: real time     72.7081
    CORREC:  cpu time      0.0003: real time      0.0003
    CHARGE:  cpu time      0.0658: real time      0.0662
    --------------------------------------------
      LOOP:  cpu time     73.5231: real time     73.5381

 eigenvalue-minimisations  :  2304
 total energy-change (2. order) : 0.2747911E+04  (-0.1469359E+01)
 number of electron     457.9999380 magnetization 
 augmentation part      160.7581500 magnetization 

 DIPCOR: dipole corrections for dipol
 direction  3 min pos     1,
 dipolmoment           0.000000      0.000000     -0.000285 electrons x Angstroem
 Tr[quadrupol]     -6318.707560

 energy correction for charged system         0.000000 eV
 dipol+quadrupol energy correction           -0.000000 eV
 added-field ion interaction          0.002320 eV  (added to PSCEN)


 Free energy of the ion-electron system (eV)
  ---------------------------------------------------
  alpha Z        PSCENC =       907.96642378
  Ewald energy   TEWEN  =    137053.32929587
  -Hartree energ DENC   =   -173152.41922951
  -exchange      EXHF   =      1361.70085502
  -V(xc)+E(xc)   XCENC  =      1423.09039210
  PAW double counting   =     32649.43877705   -36331.98648824
  entropy T*S    EENTRO =        -0.00000000
  eigenvalues    EBANDS =    -12643.36544037
  atomic energy  EATOM  =     48195.69443388
  ---------------------------------------------------
  free energy    TOTEN  =      -536.55098042 eV

  energy without entropy =     -536.55098042  energy(sigma->0) =     -536.55098042
  exchange ACFDT corr.  =         0.00000000  see jH, gK, PRB 81, 115126


--------------------------------------------------------------------------------------------------------




--------------------------------------- Iteration      1(   6)  ---------------------------------------


    POTLOK:  cpu time      0.1056: real time      0.1056
    SETDIJ:  cpu time      0.6310: real time      0.6311
    TRIAL :  cpu time     70.1104: real time     70.1173
    CORREC:  cpu time     70.5036: real time     70.5086
    CHARGE:  cpu time      0.0552: real time      0.0552
    --------------------------------------------
      LOOP:  cpu time    141.4202: real time    141.4323

 eigenvalue-minimisations  :     0
 total energy-change (2. order) : 0.2291331E+03  (-0.1219269E+03)
 number of electron     457.9999263 magnetization 
 augmentation part      157.2246014 magnetization 

 DIPCOR: dipole corrections for dipol
 direction  3 min pos     1,
 dipolmoment           0.000000      0.000000      0.319883 electrons x Angstroem
 Tr[quadrupol]     -6350.114688

 energy correction for charged system         0.000000 eV
 dipol+quadrupol energy correction           -0.006092 eV
 added-field ion interaction         -2.604990 eV  (added to PSCEN)


 Free energy of the ion-electron system (eV)
  ---------------------------------------------------
  alpha Z        PSCENC =       903.24957933
  Ewald energy   TEWEN  =    137053.32929587
  -Hartree energ DENC   =   -177234.65931119
  -exchange      EXHF   =      1369.21298423
  -V(xc)+E(xc)   XCENC  =      1540.73067986
  PAW double counting   =     37767.46439099   -41411.25188569
  entropy T*S    EENTRO =        -0.00000000
  eigenvalues    EBANDS =     -8491.18803985
  atomic energy  EATOM  =     48195.69443388
  ---------------------------------------------------
  free energy    TOTEN  =      -307.41787258 eV

  energy without entropy =     -307.41787258  energy(sigma->0) =     -307.41787258
  exchange ACFDT corr.  =         0.00000000  see jH, gK, PRB 81, 115126


--------------------------------------------------------------------------------------------------------




--------------------------------------- Iteration      1(   7)  ---------------------------------------


    POTLOK:  cpu time      0.1189: real time      0.1189
    SETDIJ:  cpu time      0.6311: real time      0.6311
    TRIAL :  cpu time     70.1437: real time     70.1501
    CORREC:  cpu time     70.3529: real time     70.3582
    CHARGE:  cpu time      0.0545: real time      0.0545
    --------------------------------------------
      LOOP:  cpu time    141.3058: real time    141.3280

 eigenvalue-minimisations  :     0
 total energy-change (2. order) :-0.1226620E+03  (-0.9928900E+01)
 number of electron     457.9999247 magnetization 
 augmentation part      155.2721678 magnetization 

 DIPCOR: dipole corrections for dipol
 direction  3 min pos     1,
 dipolmoment           0.000000      0.000000      0.258409 electrons x Angstroem
 Tr[quadrupol]     -6360.658688

 energy correction for charged system         0.000000 eV
 dipol+quadrupol energy correction           -0.003975 eV
 added-field ion interaction         -2.104375 eV  (added to PSCEN)


 Free energy of the ion-electron system (eV)
  ---------------------------------------------------
  alpha Z        PSCENC =       905.04800081
  Ewald energy   TEWEN  =    137053.32929587
  -Hartree energ DENC   =   -175168.53487689
  -exchange      EXHF   =      1315.45369627
  -V(xc)+E(xc)   XCENC  =      1475.37815692
  PAW double counting   =     36491.16830588   -40190.43098538
  entropy T*S    EENTRO =        -0.00000000
  eigenvalues    EBANDS =    -10507.18591349
  atomic energy  EATOM  =     48195.69443388
  ---------------------------------------------------
  free energy    TOTEN  =      -430.07988613 eV

  energy without entropy =     -430.07988613  energy(sigma->0) =     -430.07988613
  exchange ACFDT corr.  =         0.00000000  see jH, gK, PRB 81, 115126


--------------------------------------------------------------------------------------------------------




--------------------------------------- Iteration      1(   8)  ---------------------------------------


    POTLOK:  cpu time      0.1037: real time      0.1037
    SETDIJ:  cpu time      0.6326: real time      0.6326
    TRIAL :  cpu time     69.9908: real time     69.9956
    CORREC:  cpu time     70.3670: real time     70.3701
    CHARGE:  cpu time      0.0590: real time      0.0590
    --------------------------------------------
      LOOP:  cpu time    141.1679: real time    141.1762

 eigenvalue-minimisations  :     0
 total energy-change (2. order) :-0.9988368E+01  (-0.6652630E+01)
 number of electron     457.9999226 magnetization 
 augmentation part      155.3744314 magnetization 

 DIPCOR: dipole corrections for dipol
 direction  3 min pos     1,
 dipolmoment           0.000000      0.000000      0.139832 electrons x Angstroem
 Tr[quadrupol]     -6361.632619

 energy correction for charged system         0.000000 eV
 dipol+quadrupol energy correction           -0.001164 eV
 added-field ion interaction         -1.138733 eV  (added to PSCEN)


 Free energy of the ion-electron system (eV)
  ---------------------------------------------------
  alpha Z        PSCENC =       906.21753164
  Ewald energy   TEWEN  =    137053.32929587
  -Hartree energ DENC   =   -175212.05884626
  -exchange      EXHF   =      1309.27180258
  -V(xc)+E(xc)   XCENC  =      1466.86531498
  PAW double counting   =     36398.02364570   -40035.31735061
  entropy T*S    EENTRO =        -0.00000000
  eigenvalues    EBANDS =    -10522.09408151
  atomic energy  EATOM  =     48195.69443388
  ---------------------------------------------------
  free energy    TOTEN  =      -440.06825373 eV

  energy without entropy =     -440.06825373  energy(sigma->0) =     -440.06825373
  exchange ACFDT corr.  =        -0.00000000  see jH, gK, PRB 81, 115126


--------------------------------------------------------------------------------------------------------




--------------------------------------- Iteration      1(   9)  ---------------------------------------


    POTLOK:  cpu time      0.1069: real time      0.1069
    SETDIJ:  cpu time      0.6333: real time      0.6333
    TRIAL :  cpu time     69.8627: real time     69.8665
    CORREC:  cpu time     70.6591: real time     70.6629
    CHARGE:  cpu time      0.0536: real time      0.0536
    --------------------------------------------
      LOOP:  cpu time    141.3214: real time    141.3396

 eigenvalue-minimisations  :     0
 total energy-change (2. order) :-0.6499957E+01  (-0.3031919E+01)
 number of electron     457.9999224 magnetization 
 augmentation part      155.3138991 magnetization 

 DIPCOR: dipole corrections for dipol
 direction  3 min pos     1,
 dipolmoment           0.000000      0.000000      0.078704 electrons x Angstroem
 Tr[quadrupol]     -6353.669914

 energy correction for charged system         0.000000 eV
 dipol+quadrupol energy correction           -0.000369 eV
 added-field ion interaction         -0.640935 eV  (added to PSCEN)


 Free energy of the ion-electron system (eV)
  ---------------------------------------------------
  alpha Z        PSCENC =       907.19554364
  Ewald energy   TEWEN  =    137053.32929587
  -Hartree energ DENC   =   -175104.35386124
  -exchange      EXHF   =      1306.46379674
  -V(xc)+E(xc)   XCENC  =      1465.02468873
  PAW double counting   =     36281.84823211   -39959.63689454
  entropy T*S    EENTRO =        -0.00000000
  eigenvalues    EBANDS =    -10592.13344579
  atomic energy  EATOM  =     48195.69443388
  ---------------------------------------------------
  free energy    TOTEN  =      -446.56821059 eV

  energy without entropy =     -446.56821059  energy(sigma->0) =     -446.56821059
  exchange ACFDT corr.  =         0.00000000  see jH, gK, PRB 81, 115126


--------------------------------------------------------------------------------------------------------




--------------------------------------- Iteration      1(  10)  ---------------------------------------


    POTLOK:  cpu time      0.1078: real time      0.1078
    SETDIJ:  cpu time      0.6343: real time      0.6343
    TRIAL :  cpu time     70.0330: real time     70.0360
    CORREC:  cpu time     70.4147: real time     70.4197
    CHARGE:  cpu time      0.0568: real time      0.0568
    --------------------------------------------
      LOOP:  cpu time    141.2618: real time    141.2700

 eigenvalue-minimisations  :     0
 total energy-change (2. order) :-0.3068516E+01  (-0.1053451E+01)
 number of electron     457.9999232 magnetization 
 augmentation part      155.1904100 magnetization 

 DIPCOR: dipole corrections for dipol
 direction  3 min pos     1,
 dipolmoment           0.000000      0.000000      0.114951 electrons x Angstroem
 Tr[quadrupol]     -6351.411994

 energy correction for charged system         0.000000 eV
 dipol+quadrupol energy correction           -0.000787 eV
 added-field ion interaction         -0.936113 eV  (added to PSCEN)


 Free energy of the ion-electron system (eV)
  ---------------------------------------------------
  alpha Z        PSCENC =       907.30349745
  Ewald energy   TEWEN  =    137053.32929587
  -Hartree energ DENC   =   -174884.38549038
  -exchange      EXHF   =      1303.33946336
  -V(xc)+E(xc)   XCENC  =      1462.56479947
  PAW double counting   =     36132.91221233   -39817.84275981
  entropy T*S    EENTRO =        -0.00000000
  eigenvalues    EBANDS =    -10802.55217887
  atomic energy  EATOM  =     48195.69443388
  ---------------------------------------------------
  free energy    TOTEN  =      -449.63672669 eV

  energy without entropy =     -449.63672669  energy(sigma->0) =     -449.63672669
  exchange ACFDT corr.  =         0.00000000  see jH, gK, PRB 81, 115126


--------------------------------------------------------------------------------------------------------




--------------------------------------- Iteration      1(  11)  ---------------------------------------


    POTLOK:  cpu time      0.1087: real time      0.1087
    SETDIJ:  cpu time      0.6336: real time      0.6336
    TRIAL :  cpu time     70.0085: real time     70.0129
    CORREC:  cpu time     70.3855: real time     70.3895
    CHARGE:  cpu time      0.0574: real time      0.0574
    --------------------------------------------
      LOOP:  cpu time    141.2034: real time    141.2220

 eigenvalue-minimisations  :     0
 total energy-change (2. order) :-0.1056831E+01  (-0.4291665E+00)
 number of electron     457.9999239 magnetization 
 augmentation part      155.3177898 magnetization 

 DIPCOR: dipole corrections for dipol
 direction  3 min pos     1,
 dipolmoment           0.000000      0.000000      0.138399 electrons x Angstroem
 Tr[quadrupol]     -6352.006962

 energy correction for charged system         0.000000 eV
 dipol+quadrupol energy correction           -0.001140 eV
 added-field ion interaction         -1.127065 eV  (added to PSCEN)


 Free energy of the ion-electron system (eV)
  ---------------------------------------------------
  alpha Z        PSCENC =       907.08498599
  Ewald energy   TEWEN  =    137053.32929587
  -Hartree energ DENC   =   -174774.41261616
  -exchange      EXHF   =      1301.83184542
  -V(xc)+E(xc)   XCENC  =      1461.28963980
  PAW double counting   =     36052.60161590   -39725.55018924
  entropy T*S    EENTRO =        -0.00000000
  eigenvalues    EBANDS =    -10922.56256904
  atomic energy  EATOM  =     48195.69443388
  ---------------------------------------------------
  free energy    TOTEN  =      -450.69355758 eV

  energy without entropy =     -450.69355758  energy(sigma->0) =     -450.69355758
  exchange ACFDT corr.  =         0.00000000  see jH, gK, PRB 81, 115126


--------------------------------------------------------------------------------------------------------




--------------------------------------- Iteration      1(  12)  ---------------------------------------


    POTLOK:  cpu time      0.1092: real time      0.1093
    SETDIJ:  cpu time      0.6343: real time      0.6343
    TRIAL :  cpu time     69.7656: real time     69.7703
    CORREC:  cpu time     70.3987: real time     70.4025
    CHARGE:  cpu time      0.0571: real time      0.0571
    --------------------------------------------
      LOOP:  cpu time    140.9799: real time    140.9886

 eigenvalue-minimisations  :     0
 total energy-change (2. order) :-0.4291572E+00  (-0.1783814E+00)
 number of electron     457.9999242 magnetization 
 augmentation part      155.5168827 magnetization 

 DIPCOR: dipole corrections for dipol
 direction  3 min pos     1,
 dipolmoment           0.000000      0.000000      0.154095 electrons x Angstroem
 Tr[quadrupol]     -6352.727545

 energy correction for charged system         0.000000 eV
 dipol+quadrupol energy correction           -0.001414 eV
 added-field ion interaction         -1.254882 eV  (added to PSCEN)


 Free energy of the ion-electron system (eV)
  ---------------------------------------------------
  alpha Z        PSCENC =       906.83669829
  Ewald energy   TEWEN  =    137053.32929587
  -Hartree energ DENC   =   -174777.18231165
  -exchange      EXHF   =      1301.85045284
  -V(xc)+E(xc)   XCENC  =      1461.68028306
  PAW double counting   =     36031.93404063   -39702.54040199
  entropy T*S    EENTRO =        -0.00000000
  eigenvalues    EBANDS =    -10922.72520575
  atomic energy  EATOM  =     48195.69443388
  ---------------------------------------------------
  free energy    TOTEN  =      -451.12271482 eV

  energy without entropy =     -451.12271482  energy(sigma->0) =     -451.12271482
  exchange ACFDT corr.  =         0.00000000  see jH, gK, PRB 81, 115126


[...]
    295       9.4242      0.00000
    296       9.4451      0.00000
    297       9.5017      0.00000
    298       9.5298      0.00000
    299       9.5831      0.00000
    300       9.6981      0.00000
    301       9.9027      0.00000
    302       9.9251      0.00000
    303      10.0259      0.00000
    304      10.0291      0.00000
    305      10.0670      0.00000
    306      10.1223      0.00000
    307      10.1628      0.00000
    308      10.2096      0.00000
    309      10.2961      0.00000
    310      10.3152      0.00000
    311      10.3229      0.00000
    312      10.5129      0.00000
    313      10.6343      0.00000
    314      10.6560      0.00000
    315      10.8253      0.00000
    316      10.8393      0.00000
    317      11.1943      0.00000
    318      11.3022      0.00000
    319      11.5519      0.00000
    320      11.5776      0.00000


--------------------------------------------------------------------------------------------------------


 soft charge-density along one line, spin component           1
         0         1         2         3         4         5         6         7         8         9
 total charge-density along one line

 pseudopotential strength for first ion, spin component:           1
  9.987  13.276   0.000   0.018   0.000  -0.000  -0.058  -0.000
 13.276  17.648   0.000   0.023   0.000  -0.000  -0.076  -0.000
  0.000   0.000  -4.321  -0.000  -0.000   8.486   0.000   0.000
  0.018   0.023  -0.000  -4.277   0.000   0.000   8.375  -0.000
  0.000   0.000  -0.000   0.000  -4.321   0.000  -0.000   8.486
 -0.000  -0.000   8.486   0.000   0.000 -18.792  -0.000  -0.000
 -0.058  -0.076   0.000   8.375  -0.000  -0.000 -18.519   0.000
 -0.000  -0.000   0.000  -0.000   8.486  -0.000   0.000 -18.792
 total augmentation occupancy for first ion, spin component:           1
  6.860  -3.089   0.000   2.074   0.000   0.000   0.373   0.000
 -3.089   1.813   0.000  -1.592   0.000   0.000  -0.222   0.000
  0.000   0.000   0.805   0.000   0.000   0.059   0.000   0.000
  2.074  -1.592   0.000   2.238  -0.000   0.000   0.205   0.000
  0.000   0.000   0.000  -0.000   0.805   0.000   0.000   0.059
  0.000   0.000   0.059   0.000   0.000   0.004   0.000   0.000
  0.373  -0.222   0.000   0.205   0.000   0.000   0.028   0.000
  0.000   0.000   0.000   0.000   0.059   0.000   0.000   0.004


------------------------ aborting loop because EDIFF is reached ----------------------------------------


    FORLOC:  cpu time      0.0421: real time      0.0421
    FORHF :  cpu time     69.6205: real time     69.6258
    FORNL :  cpu time      0.3272: real time      0.3273
    STRESS:  cpu time      0.9312: real time      0.9312
    FORCOR:  cpu time      0.1022: real time      0.1023
    OFIELD:  cpu time      0.0002: real time      0.0002

  DFT-D2 method for vdW energy calculation
  -------------------------------------------------------------------

  Parameters of vdW forcefield:
         C6(Jnm^6/mol)     R0(A)
   -----------------------------
   C        1.750          1.452
   O        0.700          1.342
   Mg       0.630          1.243
   O        0.700          1.342

  vdW correction parametrized for the method     0,

  IVDW =   1
  VDW_RADIUS =    50.000 A
  VDW_S6 =     1.050
  VDW_SR =     1.000
  VDW_D =    20.000
  LVDW_EWALD = F

  Number of pair interactions contributing to vdW energy:  768258
  Edisp (eV):   -5.16925
    FORVDW:  cpu time      0.1856: real time      0.1856

  FORCE on cell =-STRESS in cart. coord.  units (eV):
  Direction    XX          YY          ZZ          XY          YZ          ZX
  --------------------------------------------------------------------------------------
  Alpha Z   907.96410   907.96410   907.96410
  Ewald  157554.75551157554.75551************     0.00000     0.00000    -0.00000
  Hartree168016.61941168016.61941************    -0.00000    -0.00000    -0.00000
  E(xc)   -2036.49834 -2036.49834 -2038.52649     0.00000    -0.00000     0.00000
  Local  ************************335136.44669    -0.00000     0.00000    -0.00000
  n-local -1185.82624 -1186.29375 -1217.96031    -0.00000     0.00000    -0.00000
  augment   903.23402   903.23402   892.32211     0.00000     0.00000    -0.00000
  Kinetic  7522.72879  7524.54528  7543.96475    -0.00000    -0.00000    -0.00000
  Fock    -2007.81292 -2007.89555 -2007.03218     0.00000     0.00000     0.00000
  vdW        -7.52581    -7.52581    -6.22224     0.00000     0.00000     0.00000
  -------------------------------------------------------------------------------------
  Total     -38.77470   -38.77470   -12.19305    -0.00000    -0.00000     0.00000
  in kB     -40.87586   -40.87586   -12.85378    -0.00000    -0.00000     0.00000
  external pressure =      -31.54 kB  Pullay stress =        0.00 kB


 VOLUME and BASIS-vectors are now :
 -----------------------------------------------------------------------------
  energy-cutoff  :      600.00
  volume of cell :     1519.82
      direct lattice vectors                 reciprocal lattice vectors
     8.440984654  0.000000000  0.000000000     0.118469591  0.000000000  0.000000000
     0.000000000  8.440984654  0.000000000     0.000000000  0.118469591  0.000000000
     0.000000000  0.000000000 21.330738491     0.000000000  0.000000000  0.046880702

  length of vectors
     8.440984654  8.440984654 21.330738491     0.118469591  0.118469591  0.046880702


 FORCES acting on ions:
    Electron-Ion                     Ewald-Force                    Non-Local-Force
 -----------------------------------------------------------------------------------------------
   0.113E-12 0.173E-12 -.828E+03   -.111E-13 -.222E-14 0.802E+03   0.000E+00 -.331E-23 0.268E+02
   0.461E-12 0.721E-12 -.143E+04   -.577E-14 0.200E-14 0.149E+04   0.000E+00 0.331E-23 -.550E+02
   -.305E-13 -.125E+00 0.208E+04   0.560E-13 0.125E+00 -.207E+04   -.662E-23 -.619E-04 -.639E+01
   0.125E+00 0.269E-13 0.208E+04   -.125E+00 0.671E-13 -.207E+04   0.619E-04 0.662E-23 -.639E+01
   -.323E-13 -.444E-12 0.713E+03   -.150E-10 0.150E-10 -.713E+03   0.000E+00 0.000E+00 0.441E+00
   0.446E+00 -.446E+00 0.714E+03   -.442E+00 0.442E+00 -.714E+03   -.251E-02 0.251E-02 0.464E+00
   -.656E-13 -.277E+01 -.643E+03   0.157E-11 0.275E+01 0.643E+03   0.165E-23 0.196E-01 -.847E-01
   0.277E+01 -.108E-12 -.643E+03   -.275E+01 -.151E-11 0.643E+03   -.196E-01 0.000E+00 -.847E-01
   -.506E-13 -.162E-12 -.200E+04   0.444E-12 -.416E-12 0.200E+04   -.165E-23 0.000E+00 0.530E+01
   0.176E+02 -.176E+02 -.198E+04   -.177E+02 0.177E+02 0.198E+04   0.800E-01 -.800E-01 0.541E+01
   -.290E-13 0.125E+00 0.208E+04   -.277E-12 -.125E+00 -.207E+04   0.496E-23 0.619E-04 -.639E+01
   0.118E+00 0.714E-12 0.208E+04   -.116E+00 0.131E-10 -.207E+04   -.116E-02 0.331E-23 -.639E+01
   -.419E-13 0.646E-12 0.714E+03   -.165E-10 0.000E+00 -.714E+03   0.000E+00 0.000E+00 0.401E+00
   0.446E+00 0.446E+00 0.714E+03   -.442E+00 -.442E+00 -.714E+03   -.251E-02 -.251E-02 0.464E+00
   -.674E-13 0.277E+01 -.643E+03   0.304E-11 -.275E+01 0.643E+03   0.000E+00 -.196E-01 -.847E-01
   0.395E+01 0.916E-12 -.636E+03   -.387E+01 0.178E-14 0.636E+03   -.746E-01 0.124E-23 -.211E+00
   -.391E-13 0.104E-11 -.199E+04   -.355E-13 -.995E-13 0.198E+04   0.000E+00 0.000E+00 0.532E+01
   0.176E+02 0.176E+02 -.198E+04   -.177E+02 -.177E+02 0.198E+04   0.800E-01 0.800E-01 0.541E+01
   0.921E-12 -.118E+00 0.208E+04   -.129E-10 0.116E+00 -.207E+04   0.662E-23 0.116E-02 -.639E+01
   -.125E+00 -.269E-13 0.208E+04   0.125E+00 0.471E-13 -.207E+04   -.619E-04 -.662E-23 -.639E+01
   0.807E-12 -.404E-12 0.714E+03   0.145E-11 0.150E-10 -.714E+03   0.000E+00 0.000E+00 0.401E+00
   -.446E+00 -.446E+00 0.714E+03   0.442E+00 0.442E+00 -.714E+03   0.251E-02 0.251E-02 0.464E+00
   0.831E-12 -.395E+01 -.636E+03   -.141E-11 0.387E+01 0.636E+03   -.827E-24 0.746E-01 -.211E+00
   -.277E+01 -.148E-12 -.643E+03   0.275E+01 -.156E-11 0.643E+03   0.196E-01 0.000E+00 -.847E-01
   0.908E-12 0.202E-12 -.199E+04   0.782E-13 -.355E-14 0.198E+04   0.000E+00 0.414E-24 0.532E+01
   -.176E+02 -.176E+02 -.198E+04   0.177E+02 0.177E+02 0.198E+04   -.800E-01 -.800E-01 0.541E+01
   0.934E-12 0.118E+00 0.208E+04   -.131E-10 -.116E+00 -.207E+04   0.000E+00 -.116E-02 -.639E+01
   -.118E+00 0.215E-12 0.208E+04   0.116E+00 0.131E-10 -.207E+04   0.116E-02 0.662E-23 -.639E+01
   0.861E-12 0.188E-11 0.714E+03   -.782E-13 0.355E-14 -.715E+03   -.827E-24 0.000E+00 0.533E+00
   -.446E+00 0.446E+00 0.714E+03   0.442E+00 -.442E+00 -.714E+03   0.251E-02 -.251E-02 0.464E+00
   0.821E-12 0.395E+01 -.636E+03   -.284E-13 -.387E+01 0.636E+03   0.000E+00 -.746E-01 -.211E+00
   -.395E+01 -.180E-11 -.636E+03   0.387E+01 0.000E+00 0.636E+03   0.746E-01 0.000E+00 -.211E+00
   0.899E-12 0.100E-11 -.192E+04   -.426E-13 -.391E-13 0.191E+04   0.000E+00 0.414E-24 0.386E+01
   -.176E+02 0.176E+02 -.198E+04   0.177E+02 -.177E+02 0.198E+04   -.800E-01 0.800E-01 0.541E+01
   -.580E-13 -.391E+00 0.535E+03   0.409E-13 0.385E+00 -.534E+03   0.000E+00 0.770E-02 -.929E-01
   0.391E+00 0.135E-13 0.535E+03   -.385E+00 0.391E-13 -.534E+03   -.770E-02 0.165E-23 -.929E-01
   -.494E-13 -.471E-12 0.156E+04   0.853E-11 -.844E-11 -.156E+04   0.000E+00 0.000E+00 0.313E+01
   0.906E-01 -.906E-01 0.156E+04   -.898E-01 0.898E-01 -.156E+04   -.965E-03 0.965E-03 0.313E+01
   -.693E-13 -.719E+01 -.152E+04   -.871E-12 0.713E+01 0.153E+04   0.165E-23 0.544E-01 -.458E+01
   0.719E+01 -.902E-12 -.152E+04   -.713E+01 0.881E-12 0.153E+04   -.544E-01 0.827E-24 -.458E+01
   -.492E-13 0.673E-13 -.478E+03   -.853E-13 0.639E-13 0.478E+03   0.000E+00 0.000E+00 0.258E+00
   0.248E+01 -.248E+01 -.473E+03   -.247E+01 0.247E+01 0.473E+03   -.917E-02 0.917E-02 0.318E+00
   -.493E-13 0.391E+00 0.535E+03   0.142E-13 -.385E+00 -.534E+03   0.000E+00 -.770E-02 -.929E-01
   0.353E+00 0.552E-12 0.535E+03   -.382E+00 -.764E-11 -.535E+03   0.346E-01 0.000E+00 -.112E+00
   -.459E-13 0.101E-12 0.156E+04   0.845E-11 -.796E-12 -.156E+04   0.132E-22 -.132E-22 0.313E+01
   0.906E-01 0.906E-01 0.156E+04   -.898E-01 -.898E-01 -.156E+04   -.965E-03 -.965E-03 0.313E+01
   -.637E-13 0.719E+01 -.152E+04   -.774E-12 -.713E+01 0.153E+04   0.000E+00 -.544E-01 -.458E+01
   0.227E+02 0.808E-12 -.149E+04   -.224E+02 0.810E-11 0.150E+04   -.256E+00 -.134E-23 -.454E+01
   -.469E-13 0.525E-12 -.474E+03   -.741E-11 0.711E-14 0.473E+03   0.000E+00 0.000E+00 0.273E+00
   0.248E+01 0.248E+01 -.473E+03   -.247E+01 -.247E+01 0.473E+03   -.917E-02 -.917E-02 0.318E+00
   0.336E-12 -.353E+00 0.535E+03   0.764E-11 0.382E+00 -.535E+03   0.165E-23 -.346E-01 -.112E+00
   -.391E+00 0.135E-13 0.535E+03   0.385E+00 0.142E-13 -.534E+03   0.770E-02 0.000E+00 -.929E-01
   0.361E-12 0.269E-12 0.156E+04   0.845E-12 -.846E-11 -.156E+04   0.000E+00 0.000E+00 0.313E+01
   -.906E-01 -.906E-01 0.156E+04   0.898E-01 0.898E-01 -.156E+04   0.965E-03 0.965E-03 0.313E+01
   0.404E-12 -.227E+02 -.149E+04   -.816E-11 0.224E+02 0.150E+04   0.662E-23 0.256E+00 -.454E+01
   -.719E+01 -.875E-12 -.152E+04   0.713E+01 0.924E-12 0.153E+04   0.544E-01 0.827E-23 -.458E+01
   0.345E-12 0.566E-12 -.474E+03   -.711E-14 0.738E-11 0.473E+03   0.000E+00 0.000E+00 0.273E+00
   -.248E+01 -.248E+01 -.473E+03   0.247E+01 0.247E+01 0.473E+03   0.917E-02 0.917E-02 0.318E+00
   0.322E-12 0.353E+00 0.535E+03   0.763E-11 -.382E+00 -.535E+03   -.165E-22 0.346E-01 -.112E+00
   -.353E+00 0.147E-11 0.535E+03   0.382E+00 -.769E-11 -.535E+03   -.346E-01 0.000E+00 -.112E+00
   0.344E-12 0.111E-11 0.156E+04   0.824E-12 -.838E-12 -.156E+04   0.000E+00 0.000E+00 0.313E+01
   -.906E-01 0.906E-01 0.156E+04   0.898E-01 -.898E-01 -.156E+04   0.965E-03 -.965E-03 0.313E+01
   0.381E-12 0.227E+02 -.149E+04   -.820E-11 -.224E+02 0.150E+04   0.000E+00 -.256E+00 -.454E+01
   -.227E+02 -.170E-11 -.149E+04   0.224E+02 0.819E-11 0.150E+04   0.256E+00 0.000E+00 -.454E+01
   0.309E-12 -.189E-12 -.474E+03   -.497E-13 0.426E-13 0.474E+03   0.000E+00 0.000E+00 -.162E+00
   -.248E+01 0.248E+01 -.473E+03   0.247E+01 -.247E+01 0.473E+03   0.917E-02 -.917E-02 0.318E+00
 -----------------------------------------------------------------------------------------------
   0.265E-10 0.165E-10 0.537E+02   0.209E-12 -.100E-12 0.796E-12   0.520E-17 -.156E-16 -.457E+02


 POSITION                                       TOTAL-FORCE (eV/Angst)
 -----------------------------------------------------------------------------------
      4.22049      4.22049     16.35814         0.000000     -0.000000      1.967157
      4.22049      4.22049     17.50496         0.000000     -0.000000     -1.934710
      0.00000      6.33074      7.50000         0.000000     -0.000031      0.466507
      2.11025      0.00000      7.50000         0.000031     -0.000000      0.466507
      0.00000      0.00000      9.61025         0.000000     -0.000000      0.042777
      2.11025      6.33074      9.61025         0.001688     -0.001688      0.045594
      0.00000      6.33023     11.73368         0.000000     -0.001724      0.013538
      2.11076      0.00000     11.73368         0.001724     -0.000000      0.013538
      0.00000      0.00000     13.83822         0.000000     -0.000000     -0.082981
      2.10905      6.33193     13.83447        -0.010269      0.010269     -0.102251
      0.00000      2.11025      7.50000         0.000000      0.000031      0.466507
      2.11025      4.22049      7.50000         0.000478     -0.000000      0.466634
      0.00000      4.22049      9.61025         0.000000     -0.000000      0.053766
      2.11025      2.11025      9.61025         0.001688      0.001688      0.045594
      0.00000      2.11076     11.73368         0.000000      0.001724      0.013538
      2.11344      4.22049     11.73659        -0.006056     -0.000000      0.025643
      0.00000      4.22049     13.83544         0.000000     -0.000000     -0.092838
      2.10905      2.10905     13.83447        -0.010269     -0.010269     -0.102251
      4.22049      6.33074      7.50000         0.000000     -0.000478      0.466634
      6.33074      0.00000      7.50000        -0.000031     -0.000000      0.466507
      4.22049      0.00000      9.61025         0.000000     -0.000000      0.053766
      6.33074      6.33074      9.61025        -0.001688     -0.001688      0.045594
      4.22049      6.32754     11.73659         0.000000      0.006056      0.025643
      6.33023      0.00000     11.73368        -0.001724     -0.000000      0.013538
      4.22049      0.00000     13.83544         0.000000     -0.000000     -0.092838
      6.33193      6.33193     13.83447         0.010269      0.010269     -0.102251
      4.22049      2.11025      7.50000         0.000000      0.000478      0.466634
      6.33074      4.22049      7.50000        -0.000478     -0.000000      0.466634
      4.22049      4.22049      9.61025         0.000000     -0.000000      0.051574
      6.33074      2.11025      9.61025        -0.001688      0.001688      0.045594
      4.22049      2.11344     11.73659         0.000000     -0.006056      0.025643
      6.32754      4.22049     11.73659         0.006056     -0.000000      0.025643
      4.22049      4.22049     13.87814         0.000000     -0.000000     -0.034138
      6.33193      2.10905     13.83447         0.010269     -0.010269     -0.102251
      0.00000      6.33074      9.61025         0.000000      0.002706      0.057913
      2.11025      0.00000      9.61025        -0.002706     -0.000000      0.057913
      0.00000      0.00000      7.50000         0.000000     -0.000000     -0.434909
      2.11025      6.33074      7.50000        -0.000332      0.000332     -0.434777
      0.00000      6.33258     13.88587         0.000000      0.000619     -0.109437
      2.10840      0.00000     13.88587        -0.000619     -0.000000     -0.109437
      0.00000      0.00000     11.72785         0.000000     -0.000000      0.033777
      2.10979      6.33120     11.72890         0.001807     -0.001807      0.027626
      0.00000      2.11025      9.61025         0.000000     -0.002706      0.057913
      2.11025      4.22049      9.61025         0.010878     -0.000000      0.066090
      0.00000      4.22049      7.50000         0.000000     -0.000000     -0.435027
      2.11025      2.11025      7.50000        -0.000332     -0.000332     -0.434777
      0.00000      2.10840     13.88587         0.000000     -0.000619     -0.109437
      2.10031      4.22049     13.88381         0.007113     -0.000000     -0.096618
      0.00000      4.22049     11.72684         0.000000     -0.000000      0.029167
      2.10979      2.10979     11.72890         0.001807      0.001807      0.027626
      4.22049      6.33074      9.61025         0.000000     -0.010878      0.066090
      6.33074      0.00000      9.61025         0.002706     -0.000000      0.057913
      4.22049      0.00000      7.50000         0.000000     -0.000000     -0.435027
      6.33074      6.33074      7.50000         0.000332      0.000332     -0.434777
      4.22049      6.34068     13.88381         0.000000     -0.007113     -0.096618
      6.33258      0.00000     13.88587         0.000619     -0.000000     -0.109437
      4.22049      0.00000     11.72684         0.000000     -0.000000      0.029167
      6.33120      6.33120     11.72890        -0.001807     -0.001807      0.027626
      4.22049      2.11025      9.61025         0.000000      0.010878      0.066090
      6.33074      4.22049      9.61025        -0.010878     -0.000000      0.066090
      4.22049      4.22049      7.50000         0.000000     -0.000000     -0.435359
      6.33074      2.11025      7.50000         0.000332     -0.000332     -0.434777
      4.22049      2.10031     13.88381         0.000000      0.007113     -0.096618
      6.34068      4.22049     13.88381        -0.007113     -0.000000     -0.096618
      4.22049      4.22049     11.73684         0.000000     -0.000000      0.010828
      6.33120      2.10979     11.72890        -0.001807      0.001807      0.027626
 -----------------------------------------------------------------------------------
    total drift:                                0.000000      0.000000      0.001235


--------------------------------------------------------------------------------------------------------



  FREE ENERGIE OF THE ION-ELECTRON SYSTEM (eV)
  ---------------------------------------------------
  free  energy   TOTEN  =      -456.64588527 eV

  energy  without entropy=     -456.64588527  energy(sigma->0) =     -456.64588527



--------------------------------------------------------------------------------------------------------


    POTLOK:  cpu time      0.7790: real time      0.7790


--------------------------------------------------------------------------------------------------------


     LOOP+:  cpu time   8773.9442: real time   8776.3072
    4ORBIT:  cpu time      0.0000: real time      0.0000

 total amount of memory used by VASP MPI-rank0   185307. kBytes
=======================================================================

   base      :      30000. kBytes
   nonl-proj :      14893. kBytes
   fftplans  :       3932. kBytes
   grid      :       3944. kBytes
   one-center:         73. kBytes
   HF        :        101. kBytes
   nonlr-proj:      15027. kBytes
   wavefun   :       4746. kBytes
   fock_wrk  :     112591. kBytes

  
  
 General timing and accounting informations for this job:
 ========================================================
  
                  Total CPU time used (sec):     8804.407
                            User time (sec):     8783.875
                          System time (sec):       20.532
                         Elapsed time (sec):     8817.160
  
                   Maximum memory used (kb):      412308.
                   Average memory used (kb):          N/A
  
                          Minor page faults:       553557
                          Major page faults:           51
                 Voluntary context switches:        15783
