 vasp.6.3.0 20Jan22 (build Mar 11 2022 13:48:16) complex                        
  
 executed on             LinuxIFC date 2023.06.16  11:35:14
 running on  304 total cores
 distrk:  each k-point on  304 cores,    1 groups
 distr:  one band on NCORE=   2 cores,  152 groups


--------------------------------------------------------------------------------------------------------


 INCAR:
   SYSTEM = MgO-rocksalt
   ISMEAR = 0
   SIGMA = 0.05
   EDIFF = 1E-7
   POTIM = 0.5
   ALGO = ALL
   ISTART = 0
   IBRION = -1
   NSW = 0
   ISYM = 2
   ISIF = 2
   EDIFFG = -0.01
   DIPOL = 0.5 0.5 0.5
   IDIPOL = 3
   LDIPOL = .TRUE.
   GGA = MK
   LUSE_VDW = .TRUE.
   PARAM1 = 0.1234
   PARAM2 = 0.711357
   ZAB_VDW = -1.8867
   AGGAC = 0.0
   ENCUT = 600
   PREC = Normal
   LASPH = .TRUE.
   LREAL = .FALSE.
   ISPIN = 1
   NELM = 200
   NELMIN = 8
   NCORE = 2
   KPAR = 1
   LWAVE = .FALSE.
   LCHARG = .FALSE.

 POTCAR:    PAW_PBE C 08Apr2002                   
 POTCAR:    PAW_PBE O 08Apr2002                   
 POTCAR:    PAW_PBE Mg_pv 13Apr2007               
 POTCAR:    PAW_PBE O 08Apr2002                   
 -----------------------------------------------------------------------------
|                                                                             |
|           W    W    AA    RRRRR   N    N  II  N    N   GGGG   !!!           |
|           W    W   A  A   R    R  NN   N  II  NN   N  G    G  !!!           |
|           W    W  A    A  R    R  N N  N  II  N N  N  G       !!!           |
|           W WW W  AAAAAA  RRRRR   N  N N  II  N  N N  G  GGG   !            |
|           WW  WW  A    A  R   R   N   NN  II  N   NN  G    G                |
|           W    W  A    A  R    R  N    N  II  N    N   GGGG   !!!           |
|                                                                             |
|     For optimal performance we recommend to set                             |
|       NCORE = 2 up to number-of-cores-per-socket                            |
|     NCORE specifies how many cores store one orbital (NPAR=cpu/NCORE).      |
|     This setting can greatly improve the performance of VASP for DFT.       |
|     The default, NCORE=1 might be grossly inefficient on modern             |
|     multi-core architectures or massively parallel machines. Do your        |
|     own testing! More info at https://www.vasp.at/wiki/index.php/NCORE      |
|     Unfortunately you need to use the default for GW and RPA                |
|     calculations (for HF NCORE is supported but not extensively tested      |
|     yet).                                                                   |
|                                                                             |
 -----------------------------------------------------------------------------

 -----------------------------------------------------------------------------
|                                                                             |
|               ----> ADVICE to this user running VASP <----                  |
|                                                                             |
|     You have switched on vdW-DFT.                                           |
|     This routine was written and supplied by Jiri Klimes. We recommend      |
|     that you carefully read and cite the following publications:            |
|       J. Klimes, D.R. Bowler, A. Michelides                                 |
|          J. Phys.: Cond Matt. 22 022201 (2010)                              |
|       J. Klimes, D.R. Bowler, A. Michelides                                 |
|          Phys. Rev. B. 83, 195131 (2011)                                    |
|     and references therein.                                                 |
|                                                                             |
 -----------------------------------------------------------------------------

 POTCAR:    PAW_PBE C 08Apr2002                   
   SHA256 =  253f7b50bb8d59471dbedb8285d89021f4a42ed1a2c5d38a03a736e69125dd95 C/POTCAR              
   COPYR  = (c) Copyright 08Apr2002 Georg Kresse                                                    
   COPYR  = This file is part of the software VASP. Any use, copying, and all other rights are regul
   COPYR  = If you do not have a valid VASP license, you may not use, copy or distribute this file. 
   VRHFIN =C: s2p2                                                                                  
   LEXCH  = PE                                                                                      
   EATOM  =   147.1560 eV,   10.8157 Ry                                                             
                                                                                                    
   TITEL  = PAW_PBE C 08Apr2002                                                                     
   LULTRA =        F    use ultrasoft PP ?                                                          
   IUNSCR =        1    unscreen: 0-lin 1-nonlin 2-no                                               
   RPACOR =    1.200    partial core radius                                                         
   POMASS =   12.011; ZVAL   =    4.000    mass and valenz                                          
   RCORE  =    1.500    outmost cutoff radius                                                       
   RWIGS  =    1.630; RWIGS  =    0.863    wigner-seitz radius (au A)                               
   ENMAX  =  400.000; ENMIN  =  300.000 eV                                                          
   ICORE  =        2    local potential                                                             
   LCOR   =        T    correct aug charges                                                         
   LPAW   =        T    paw PP                                                                      
   EAUG   =  644.873                                                                                
   DEXC   =    0.000                                                                                
   RMAX   =    1.529    core radius for proj-oper                                                   
   RAUG   =    1.300    factor for augmentation sphere                                              
   RDEP   =    1.501    radius for radial grids                                                     
   RDEPT  =    1.300    core radius for aug-charge                                                  
                                                                                                    
   Atomic configuration                                                                             
    4 entries                                                                                       
     n  l   j            E        occ.                                                              
     1  0  0.50      -273.3789   2.0000                                                             
     2  0  0.50       -13.7508   2.0000                                                             
     2  1  0.50        -5.2854   2.0000                                                             
     3  2  1.50        -5.4423   0.0000                                                             
   Description                                                                                      
     l       E           TYP  RCUT    TYP  RCUT                                                     
     0    -13.7508458     23  1.200                                                                 
     0     -8.2022199     23  1.200                                                                 
     1     -5.2854383     23  1.500                                                                 
     1     34.0145650     23  1.500                                                                 
     2     -5.4423304      7  1.500                                                                 
  local pseudopotential read in
  partial core-charges read in
  partial kinetic energy density read in
  atomic valenz-charges read in
  non local Contribution for L=           0  read in
    real space projection operators read in
  non local Contribution for L=           0  read in
    real space projection operators read in
  non local Contribution for L=           1  read in
    real space projection operators read in
  non local Contribution for L=           1  read in
    real space projection operators read in
    PAW grid and wavefunctions read in
 
   number of l-projection  operators is LMAX  =           4
   number of lm-projection operators is LMMAX =           8
 
 POTCAR:    PAW_PBE O 08Apr2002                   
   SHA256 =  818f92134a0a090dccd8ba1447fa70422a3b330e708bb4f08108d8ae51209ddf O/POTCAR              
   COPYR  = (c) Copyright 08Apr2002 Georg Kresse                                                    
   COPYR  = This file is part of the software VASP. Any use, copying, and all other rights are regul
   COPYR  = If you do not have a valid VASP license, you may not use, copy or distribute this file. 
   VRHFIN =O: s2p4                                                                                  
   LEXCH  = PE                                                                                      
   EATOM  =   432.3788 eV,   31.7789 Ry                                                             
                                                                                                    
   TITEL  = PAW_PBE O 08Apr2002                                                                     
   LULTRA =        F    use ultrasoft PP ?                                                          
   IUNSCR =        1    unscreen: 0-lin 1-nonlin 2-no                                               
   RPACOR =    1.200    partial core radius                                                         
   POMASS =   16.000; ZVAL   =    6.000    mass and valenz                                          
   RCORE  =    1.520    outmost cutoff radius                                                       
   RWIGS  =    1.550; RWIGS  =    0.820    wigner-seitz radius (au A)                               
   ENMAX  =  400.000; ENMIN  =  300.000 eV                                                          
   ICORE  =        2    local potential                                                             
   LCOR   =        T    correct aug charges                                                         
   LPAW   =        T    paw PP                                                                      
   EAUG   =  605.392                                                                                
   DEXC   =    0.000                                                                                
   RMAX   =    1.553    core radius for proj-oper                                                   
   RAUG   =    1.300    factor for augmentation sphere                                              
   RDEP   =    1.550    radius for radial grids                                                     
   RDEPT  =    1.329    core radius for aug-charge                                                  
                                                                                                    
   Atomic configuration                                                                             
    4 entries                                                                                       
     n  l   j            E        occ.                                                              
     1  0  0.50      -514.6923   2.0000                                                             
     2  0  0.50       -23.9615   2.0000                                                             
     2  1  0.50        -9.0305   4.0000                                                             
     3  2  1.50        -9.5241   0.0000                                                             
   Description                                                                                      
     l       E           TYP  RCUT    TYP  RCUT                                                     
     0    -23.9615318     23  1.200                                                                 
     0     -9.5240782     23  1.200                                                                 
     1     -9.0304911     23  1.520                                                                 
     1      8.1634956     23  1.520                                                                 
     2     -9.5240782      7  1.500                                                                 
  local pseudopotential read in
  partial core-charges read in
  partial kinetic energy density read in
  kinetic energy density of atom read in
  atomic valenz-charges read in
  non local Contribution for L=           0  read in
    real space projection operators read in
  non local Contribution for L=           0  read in
    real space projection operators read in
  non local Contribution for L=           1  read in
    real space projection operators read in
  non local Contribution for L=           1  read in
    real space projection operators read in
    PAW grid and wavefunctions read in
 
   number of l-projection  operators is LMAX  =           4
   number of lm-projection operators is LMMAX =           8
 
 POTCAR:    PAW_PBE Mg_pv 13Apr2007               
   SHA256 =  f474ac0dd33840b9ae76c01d57fea79fdf77cdfbb07d5ade72c65f83c709b62b Mg_pv/POTCAR          
   COPYR  = (c) Copyright 13Apr2007 Georg Kresse                                                    
   COPYR  = This file is part of the software VASP. Any use, copying, and all other rights are regul
   COPYR  = If you do not have a valid VASP license, you may not use, copy or distribute this file. 
   VRHFIN =Mg: p6s2                                                                                 
   LEXCH  = PE                                                                                      
   EATOM  =  1056.7344 eV,   77.6678 Ry                                                             
                                                                                                    
   TITEL  = PAW_PBE Mg_pv 13Apr2007                                                                 
   LULTRA =        F    use ultrasoft PP ?                                                          
   IUNSCR =        1    unscreen: 0-lin 1-nonlin 2-no                                               
   RPACOR =    1.500    partial core radius                                                         
   POMASS =   24.305; ZVAL   =    8.000    mass and valenz                                          
   RCORE  =    2.000    outmost cutoff radius                                                       
   RWIGS  =    2.000; RWIGS  =    1.058    wigner-seitz radius (au A)                               
   ENMAX  =  403.929; ENMIN  =  302.947 eV                                                          
   RCLOC  =    1.506    cutoff for local pot                                                        
   LCOR   =        T    correct aug charges                                                         
   LPAW   =        T    paw PP                                                                      
   EAUG   =  758.780                                                                                
   DEXC   =    0.000                                                                                
   RMAX   =    2.045    core radius for proj-oper                                                   
   RAUG   =    1.300    factor for augmentation sphere                                              
   RDEP   =    2.025    radius for radial grids                                                     
   RDEPT  =    1.557    core radius for aug-charge                                                  
                                                                                                    
   Atomic configuration                                                                             
    5 entries                                                                                       
     n  l   j            E        occ.                                                              
     1  0  0.50     -1259.6230   2.0000                                                             
     2  0  0.50       -79.8442   2.0000                                                             
     2  1  1.50       -46.6121   6.0000                                                             
     3  0  0.50        -4.7055   2.0000                                                             
     3  2  1.50        -1.3606   0.0000                                                             
   Description                                                                                      
     l       E           TYP  RCUT    TYP  RCUT                                                     
     1    -46.6121073     23  1.600                                                                 
     1      2.7211652     23  1.600                                                                 
     0     -4.7054661     23  2.000                                                                 
     0     61.2262170     23  2.000                                                                 
     2     -1.3605826     23  2.000                                                                 
  local pseudopotential read in
  partial core-charges read in
  partial kinetic energy density read in
  atomic valenz-charges read in
  non local Contribution for L=           1  read in
    real space projection operators read in
  non local Contribution for L=           1  read in
    real space projection operators read in
  non local Contribution for L=           0  read in
    real space projection operators read in
  non local Contribution for L=           0  read in
    real space projection operators read in
  non local Contribution for L=           2  read in
    real space projection operators read in
    PAW grid and wavefunctions read in
 
   number of l-projection  operators is LMAX  =           5
   number of lm-projection operators is LMMAX =          13
 
 POTCAR:    PAW_PBE O 08Apr2002                   
   SHA256 =  818f92134a0a090dccd8ba1447fa70422a3b330e708bb4f08108d8ae51209ddf O/POTCAR              
   COPYR  = (c) Copyright 08Apr2002 Georg Kresse                                                    
   COPYR  = This file is part of the software VASP. Any use, copying, and all other rights are regul
   COPYR  = If you do not have a valid VASP license, you may not use, copy or distribute this file. 
   VRHFIN =O: s2p4                                                                                  
   LEXCH  = PE                                                                                      
   EATOM  =   432.3788 eV,   31.7789 Ry                                                             
                                                                                                    
   TITEL  = PAW_PBE O 08Apr2002                                                                     
   LULTRA =        F    use ultrasoft PP ?                                                          
   IUNSCR =        1    unscreen: 0-lin 1-nonlin 2-no                                               
   RPACOR =    1.200    partial core radius                                                         
   POMASS =   16.000; ZVAL   =    6.000    mass and valenz                                          
   RCORE  =    1.520    outmost cutoff radius                                                       
   RWIGS  =    1.550; RWIGS  =    0.820    wigner-seitz radius (au A)                               
   ENMAX  =  400.000; ENMIN  =  300.000 eV                                                          
   ICORE  =        2    local potential                                                             
   LCOR   =        T    correct aug charges                                                         
   LPAW   =        T    paw PP                                                                      
   EAUG   =  605.392                                                                                
   DEXC   =    0.000                                                                                
   RMAX   =    1.553    core radius for proj-oper                                                   
   RAUG   =    1.300    factor for augmentation sphere                                              
   RDEP   =    1.550    radius for radial grids                                                     
   RDEPT  =    1.329    core radius for aug-charge                                                  
                                                                                                    
   Atomic configuration                                                                             
    4 entries                                                                                       
     n  l   j            E        occ.                                                              
     1  0  0.50      -514.6923   2.0000                                                             
     2  0  0.50       -23.9615   2.0000                                                             
     2  1  0.50        -9.0305   4.0000                                                             
     3  2  1.50        -9.5241   0.0000                                                             
   Description                                                                                      
     l       E           TYP  RCUT    TYP  RCUT                                                     
     0    -23.9615318     23  1.200                                                                 
     0     -9.5240782     23  1.200                                                                 
     1     -9.0304911     23  1.520                                                                 
     1      8.1634956     23  1.520                                                                 
     2     -9.5240782      7  1.500                                                                 
  local pseudopotential read in
  partial core-charges read in
  partial kinetic energy density read in
  kinetic energy density of atom read in
  atomic valenz-charges read in
  non local Contribution for L=           0  read in
    real space projection operators read in
  non local Contribution for L=           0  read in
    real space projection operators read in
  non local Contribution for L=           1  read in
    real space projection operators read in
  non local Contribution for L=           1  read in
    real space projection operators read in
    PAW grid and wavefunctions read in
 
   number of l-projection  operators is LMAX  =           4
   number of lm-projection operators is LMMAX =           8
 
 -----------------------------------------------------------------------------
|                                                                             |
|               ----> ADVICE to this user running VASP <----                  |
|                                                                             |
|     You have a (more or less) 'large supercell' and for larger cells it     |
|     might be more efficient to use real-space projection operators.         |
|     Therefore, try LREAL= Auto in the INCAR file.                           |
|     Mind: For very accurate calculation, you might also keep the            |
|     reciprocal projection scheme (i.e. LREAL=.FALSE.).                      |
|                                                                             |
 -----------------------------------------------------------------------------

 -----------------------------------------------------------------------------
|                                                                             |
|               ----> ADVICE to this user running VASP <----                  |
|                                                                             |
|     You enforced a specific xc type in the INCAR file but a different       |
|     type was found in the POTCAR file.                                      |
|     I HOPE YOU KNOW WHAT YOU ARE DOING!                                     |
|                                                                             |
 -----------------------------------------------------------------------------

  PAW_PBE C 08Apr2002                   :
 energy of atom  1       EATOM= -147.1560
 kinetic energy error for atom=    0.0057 (will be added to EATOM!!)
  PAW_PBE O 08Apr2002                   :
 energy of atom  2       EATOM= -432.3788
 kinetic energy error for atom=    0.0168 (will be added to EATOM!!)
  PAW_PBE Mg_pv 13Apr2007               :
 energy of atom  3       EATOM=-1056.7344
 kinetic energy error for atom=    0.0221 (will be added to EATOM!!)
  PAW_PBE O 08Apr2002                   :
 energy of atom  4       EATOM= -432.3788
 kinetic energy error for atom=    0.0168 (will be added to EATOM!!)
 
 
 POSCAR:  C  O Mg  O
  positions in direct lattice
  No initial velocities read in
 exchange correlation table for  LEXCH =       43
   RHO(1)=    0.500       N(1)  =     2000
   RHO(2)=  100.500       N(2)  =     4000
 


--------------------------------------------------------------------------------------------------------


 ion  position               nearest neighbor table
   1  0.500  0.500  0.648-   2 1.15
   2  0.500  0.500  0.692-   1 1.15
   3  0.000  0.750  0.308-  35 2.11  37 2.11  38 2.11  45 2.11  54 2.11
   4  0.250  0.000  0.308-  36 2.11  37 2.11  38 2.11  46 2.11  53 2.11
   5  0.000  0.000  0.389-  37 2.11  36 2.11  35 2.11  43 2.11  52 2.11  41 2.12
   6  0.250  0.750  0.389-  38 2.11  36 2.11  35 2.11  44 2.11  51 2.11  42 2.12
   7  0.000  0.750  0.471-  49 2.11  42 2.11  58 2.11  41 2.11  35 2.12  39 2.15
   8  0.250  0.000  0.471-  57 2.11  50 2.11  42 2.11  41 2.11  36 2.12  40 2.15
   9  0.000  0.000  0.552-  39 2.11  40 2.11  47 2.11  56 2.11  41 2.11
  10  0.250  0.750  0.552-  42 2.11  40 2.11  39 2.11  48 2.11  55 2.11
  11  0.000  0.250  0.308-  43 2.11  37 2.11  45 2.11  46 2.11  62 2.11
  12  0.250  0.500  0.308-  44 2.11  38 2.11  45 2.11  46 2.11  61 2.11
  13  0.000  0.500  0.389-  45 2.11  43 2.11  44 2.11  35 2.11  60 2.11  49 2.12
  14  0.250  0.250  0.389-  46 2.11  43 2.11  44 2.11  36 2.11  59 2.11  50 2.12
  15  0.000  0.250  0.471-  49 2.11  50 2.11  66 2.11  41 2.11  43 2.12  47 2.15
  16  0.250  0.500  0.471-  65 2.11  50 2.11  42 2.11  49 2.11  44 2.13  48 2.15
  17  0.000  0.500  0.552-  48 2.10  64 2.10  49 2.11  47 2.11  39 2.11
  18  0.250  0.250  0.552-  50 2.11  47 2.11  40 2.11  48 2.11  63 2.11
  19  0.500  0.750  0.308-  51 2.11  38 2.11  53 2.11  54 2.11  61 2.11
  20  0.750  0.000  0.308-  52 2.11  37 2.11  53 2.11  54 2.11  62 2.11
  21  0.500  0.000  0.389-  53 2.11  51 2.11  52 2.11  36 2.11  59 2.11  57 2.12
  22  0.750  0.750  0.389-  54 2.11  51 2.11  52 2.11  35 2.11  60 2.11  58 2.12
  23  0.500  0.750  0.471-  65 2.11  58 2.11  42 2.11  57 2.11  51 2.13  55 2.15
  24  0.750  0.000  0.471-  57 2.11  58 2.11  66 2.11  41 2.11  52 2.12  56 2.15
  25  0.500  0.000  0.552-  55 2.10  63 2.10  57 2.11  40 2.11  56 2.11
  26  0.750  0.750  0.552-  58 2.11  56 2.11  39 2.11  55 2.11  64 2.11
  27  0.500  0.250  0.308-  59 2.11  53 2.11  46 2.11  61 2.11  62 2.11
  28  0.750  0.500  0.308-  60 2.11  54 2.11  45 2.11  61 2.11  62 2.11
  29  0.500  0.500  0.389-  61 2.11  51 2.11  59 2.11  60 2.11  44 2.11  65 2.13
  30  0.750  0.250  0.389-  62 2.11  52 2.11  59 2.11  60 2.11  43 2.11  66 2.12
  31  0.500  0.250  0.471-  65 2.11  50 2.11  66 2.11  57 2.11  59 2.13  63 2.15
  32  0.750  0.500  0.471-  65 2.11  58 2.11  66 2.11  49 2.11  60 2.13  64 2.15
  33  0.500  0.500  0.554-  48 2.12  55 2.12  63 2.12  64 2.12  65 2.14
  34  0.750  0.250  0.552-  66 2.11  56 2.11  47 2.11  64 2.11  63 2.11
  35  0.000  0.750  0.389-   3 2.11   5 2.11   6 2.11  13 2.11  22 2.11   7 2.12
  36  0.250  0.000  0.389-   4 2.11   5 2.11   6 2.11  14 2.11  21 2.11   8 2.12
  37  0.000  0.000  0.308-   5 2.11   4 2.11   3 2.11  11 2.11  20 2.11
  38  0.250  0.750  0.308-   6 2.11   4 2.11   3 2.11  12 2.11  19 2.11
  39  0.000  0.750  0.554-   9 2.11  10 2.11  26 2.11  17 2.11   7 2.15
  40  0.250  0.000  0.554-   9 2.11  10 2.11  18 2.11  25 2.11   8 2.15
  41  0.000  0.000  0.471-   9 2.11   8 2.11   7 2.11  15 2.11  24 2.11   5 2.12
  42  0.250  0.750  0.471-  10 2.11   8 2.11   7 2.11  16 2.11  23 2.11   6 2.12
  43  0.000  0.250  0.389-  11 2.11   5 2.11  13 2.11  14 2.11  30 2.11  15 2.12
  44  0.250  0.500  0.389-  12 2.11   6 2.11  13 2.11  14 2.11  29 2.11  16 2.13
  45  0.000  0.500  0.308-  13 2.11  11 2.11  12 2.11   3 2.11  28 2.11
  46  0.250  0.250  0.308-  14 2.11  11 2.11  12 2.11   4 2.11  27 2.11
  47  0.000  0.250  0.554-   9 2.11  18 2.11  34 2.11  17 2.11  15 2.15
  48  0.249  0.500  0.554-  17 2.10  10 2.11  18 2.11  33 2.12  16 2.15
  49  0.000  0.500  0.471-  17 2.11  15 2.11   7 2.11  16 2.11  32 2.11  13 2.12
  50  0.250  0.250  0.471-  18 2.11  15 2.11   8 2.11  16 2.11  31 2.11  14 2.12
  51  0.500  0.750  0.389-  19 2.11   6 2.11  21 2.11  22 2.11  29 2.11  23 2.13
  52  0.750  0.000  0.389-  20 2.11   5 2.11  21 2.11  22 2.11  30 2.11  24 2.12
  53  0.500  0.000  0.308-  21 2.11  19 2.11  20 2.11   4 2.11  27 2.11
  54  0.750  0.750  0.308-  22 2.11  19 2.11  20 2.11   3 2.11  28 2.11
  55  0.500  0.751  0.554-  25 2.10  10 2.11  26 2.11  33 2.12  23 2.15
  56  0.750  0.000  0.554-   9 2.11  26 2.11  34 2.11  25 2.11  24 2.15
  57  0.500  0.000  0.471-  25 2.11  24 2.11   8 2.11  23 2.11  31 2.11  21 2.12
  58  0.750  0.750  0.471-  26 2.11  24 2.11   7 2.11  32 2.11  23 2.11  22 2.12
  59  0.500  0.250  0.389-  27 2.11  21 2.11  14 2.11  29 2.11  30 2.11  31 2.13
  60  0.750  0.500  0.389-  28 2.11  22 2.11  13 2.11  29 2.11  30 2.11  32 2.13
  61  0.500  0.500  0.308-  29 2.11  19 2.11  27 2.11  28 2.11  12 2.11
  62  0.750  0.250  0.308-  30 2.11  20 2.11  27 2.11  28 2.11  11 2.11
  63  0.500  0.249  0.554-  25 2.10  18 2.11  34 2.11  33 2.12  31 2.15
  64  0.751  0.500  0.554-  17 2.10  26 2.11  34 2.11  33 2.12  32 2.15
  65  0.500  0.500  0.471-  16 2.11  23 2.11  31 2.11  32 2.11  29 2.13  33 2.14
  66  0.750  0.250  0.471-  34 2.11  24 2.11  15 2.11  32 2.11  31 2.11  30 2.12
 
  LATTYP: Found a simple tetragonal cell.
 ALAT       =     8.4409846542
 C/A-ratio  =     3.0761793169
  
  Lattice vectors:
  
 A1 = (   8.4409846542,   0.0000000000,   0.0000000000)
 A2 = (   0.0000000000,   8.4409846542,   0.0000000000)
 A3 = (   0.0000000000,   0.0000000000,  25.9659824075)


Analysis of symmetry for initial positions (statically):
=====================================================================
 Subroutine PRICEL returns:
 Original cell was already a primitive cell.
 

 Routine SETGRP: Setting up the symmetry group for a 
 simple tetragonal supercell.


 Subroutine GETGRP returns: Found  8 space group operations
 (whereof  8 operations were pure point group operations)
 out of a pool of 16 trial point group operations.


The static configuration has the point symmetry C_4v.


Analysis of symmetry for dynamics (positions and initial velocities):
=====================================================================
 Subroutine PRICEL returns:
 Original cell was already a primitive cell.
 

 Routine SETGRP: Setting up the symmetry group for a 
 simple tetragonal supercell.


 Subroutine GETGRP returns: Found  8 space group operations
 (whereof  8 operations were pure point group operations)
 out of a pool of 16 trial point group operations.


The dynamic configuration has the point symmetry C_4v.


 Subroutine INISYM returns: Found  8 space group operations
 (whereof  8 operations are pure point group operations),
 and found     1 'primitive' translations


----------------------------------------------------------------------------------------

                                     Primitive cell                                     

  volume of cell :    1850.0820

  direct lattice vectors                    reciprocal lattice vectors
     8.440984654  0.000000000  0.000000000     0.118469591  0.000000000  0.000000000
     0.000000000  8.440984654  0.000000000     0.000000000  0.118469591  0.000000000
     0.000000000  0.000000000 25.965982408     0.000000000  0.000000000  0.038511926

  length of vectors
     8.440984654  8.440984654 25.965982408     0.118469591  0.118469591  0.038511926

  position of ions in fractional coordinates (direct lattice)
     0.500000000  0.500000000  0.647738350
     0.500000000  0.500000000  0.691904590
     0.000000000  0.750000000  0.308095410
     0.250000000  0.000000000  0.308095410
     0.000000000  0.000000000  0.389365055
     0.250000000  0.750000000  0.389365055
     0.000000000  0.749939268  0.471142648
     0.250060732  0.000000000  0.471142648
     0.000000000  0.000000000  0.552192338
     0.249858327  0.750141673  0.552047952
     0.000000000  0.250000000  0.308095410
     0.250000000  0.500000000  0.308095410
     0.000000000  0.500000000  0.389365055
     0.250000000  0.250000000  0.389365055
     0.000000000  0.250060732  0.471142648
     0.250378379  0.500000000  0.471254605
     0.000000000  0.500000000  0.552085521
     0.249858327  0.249858327  0.552047952
     0.500000000  0.750000000  0.308095410
     0.750000000  0.000000000  0.308095410
     0.500000000  0.000000000  0.389365055
     0.750000000  0.750000000  0.389365055
     0.500000000  0.749621621  0.471254605
     0.749939268  0.000000000  0.471142648
     0.500000000  0.000000000  0.552085521
     0.750141673  0.750141673  0.552047952
     0.500000000  0.250000000  0.308095410
     0.750000000  0.500000000  0.308095410
     0.500000000  0.500000000  0.389365055
     0.750000000  0.250000000  0.389365055
     0.500000000  0.250378379  0.471254605
     0.749621621  0.500000000  0.471254605
     0.500000000  0.500000000  0.553729877
     0.750141673  0.249858327  0.552047952
     0.000000000  0.750000000  0.389365055
     0.250000000  0.000000000  0.389365055
     0.000000000  0.000000000  0.308095410
     0.250000000  0.750000000  0.308095410
     0.000000000  0.750218533  0.554027498
     0.249781467  0.000000000  0.554027498
     0.000000000  0.000000000  0.470918096
     0.249945770  0.750054230  0.470958532
     0.000000000  0.250000000  0.389365055
     0.250000000  0.500000000  0.389365055
     0.000000000  0.500000000  0.308095410
     0.250000000  0.250000000  0.308095410
     0.000000000  0.249781467  0.554027498
     0.248822710  0.500000000  0.553948320
     0.000000000  0.500000000  0.470879301
     0.249945770  0.249945770  0.470958532
     0.500000000  0.750000000  0.389365055
     0.750000000  0.000000000  0.389365055
     0.500000000  0.000000000  0.308095410
     0.750000000  0.750000000  0.308095410
     0.500000000  0.751177290  0.553948320
     0.750218533  0.000000000  0.554027498
     0.500000000  0.000000000  0.470879301
     0.750054230  0.750054230  0.470958532
     0.500000000  0.250000000  0.389365055
     0.750000000  0.500000000  0.389365055
     0.500000000  0.500000000  0.308095410
     0.750000000  0.250000000  0.308095410
     0.500000000  0.248822710  0.553948320
     0.751177290  0.500000000  0.553948320
     0.500000000  0.500000000  0.471264325
     0.750054230  0.249945770  0.470958532

  ion indices of the primitive-cell ions
   primitive index   ion index
                 1           1
                 2           2
                 3           3
                 4           4
                 5           5
                 6           6
                 7           7
                 8           8
                 9           9
                10          10
                11          11
                12          12
                13          13
                14          14
                15          15
                16          16
                17          17
                18          18
                19          19
                20          20
                21          21
                22          22
                23          23
                24          24
                25          25
                26          26
                27          27
                28          28
                29          29
                30          30
                31          31
                32          32
                33          33
                34          34
                35          35
                36          36
                37          37
                38          38
                39          39
                40          40
                41          41
                42          42
                43          43
                44          44
                45          45
                46          46
                47          47
                48          48
                49          49
                50          50
                51          51
                52          52
                53          53
                54          54
                55          55
                56          56
                57          57
                58          58
                59          59
                60          60
                61          61
                62          62
                63          63
                64          64
                65          65
                66          66

----------------------------------------------------------------------------------------

 
 
 KPOINTS: pymatgen v2020.8.13 with grid density = 

Automatic generation of k-mesh.
 Grid dimensions read from file:
 generate k-points for:    3    3    1

 Generating k-lattice:

  Cartesian coordinates                     Fractional coordinates (reciprocal lattice)
     0.039489864  0.000000000  0.000000000     0.333333333  0.000000000  0.000000000
     0.000000000  0.039489864  0.000000000     0.000000000  0.333333333  0.000000000
     0.000000000  0.000000000  0.038511926     0.000000000  0.000000000  1.000000000

  Length of vectors
     0.039489864  0.039489864  0.038511926

  Shift w.r.t. Gamma in fractional coordinates (k-lattice)
     0.000000000  0.000000000  0.000000000

 
 Subroutine IBZKPT returns following result:
 ===========================================
 
 Found      3 irreducible k-points:
 
 Following reciprocal coordinates:
            Coordinates               Weight
  0.000000  0.000000  0.000000      1.000000
  0.333333  0.000000  0.000000      4.000000
  0.333333  0.333333  0.000000      4.000000
 
 Following cartesian coordinates:
            Coordinates               Weight
  0.000000  0.000000  0.000000      1.000000
  0.039490  0.000000  0.000000      4.000000
  0.039490  0.039490  0.000000      4.000000
 


--------------------------------------------------------------------------------------------------------




 Dimension of arrays:
   k-points           NKPTS =      3   k-points in BZ     NKDIM =      3   number of bands    NBANDS=    304
   number of dos      NEDOS =    301   number of ions     NIONS =     66
   non local maximal  LDIM  =      5   non local SUM 2l+1 LMDIM =     13
   total plane-waves  NPLWV = 466560
   max r-space proj   IRMAX =      1   max aug-charges    IRDMAX=   5169
   dimension x,y,z NGX =    54 NGY =   54 NGZ =  160
   dimension x,y,z NGXF=   108 NGYF=  108 NGZF=  320
   support grid    NGXF=   108 NGYF=  108 NGZF=  320
   ions per type =               1   1  32  32
   NGX,Y,Z   is equivalent  to a cutoff of  10.64, 10.64, 10.24 a.u.
   NGXF,Y,Z  is equivalent  to a cutoff of  21.27, 21.27, 20.49 a.u.

 SYSTEM =  MgO-rocksalt                            
 POSCAR =   C  O Mg  O                             

 Startparameter for this run:
   NWRITE =      2    write-flag & timer
   PREC   = normal    normal or accurate (medium, high low for compatibility)
   ISTART =      0    job   : 0-new  1-cont  2-samecut
   ICHARG =      2    charge: 1-file 2-atom 10-const
   ISPIN  =      1    spin polarized calculation?
   LNONCOLLINEAR =      F non collinear calculations
   LSORBIT =      F    spin-orbit coupling
   INIWAV =      1    electr: 0-lowe 1-rand  2-diag
   LASPH  =      T    aspherical Exc in radial PAW
 Electronic Relaxation 1
   ENCUT  =  600.0 eV  44.10 Ry    6.64 a.u.  16.86 16.86 51.86*2*pi/ulx,y,z
   ENINI  =  600.0     initial cutoff
   ENAUG  =  758.8 eV  augmentation charge cutoff
   NELM   =    200;   NELMIN=  8; NELMDL= -5     # of ELM steps 
   EDIFF  = 0.1E-06   stopping-criterion for ELM
   LREAL  =      F    real-space projection
   NLSPLINE    = F    spline interpolate recip. space projectors
   LCOMPAT=      F    compatible to vasp.4.4
   GGA_COMPAT  = T    GGA compatible to vasp.4.4-vasp.4.6
   LMAXPAW     = -100 max onsite density
   LMAXMIX     =    2 max onsite mixed and CHGCAR
   VOSKOWN=      0    Vosko Wilk Nusair interpolation
   ROPT   =    0.00000   0.00000   0.00000   0.00000
 Ionic relaxation
   EDIFFG = -.1E-01   stopping-criterion for IOM
   NSW    =      0    number of steps for IOM
   NBLOCK =      1;   KBLOCK =      1    inner block; outer block 
   IBRION =     -1    ionic relax: 0-MD 1-quasi-New 2-CG
   NFREE  =      0    steps in history (QN), initial steepest desc. (CG)
   ISIF   =      2    stress and relaxation
   IWAVPR =     10    prediction:  0-non 1-charg 2-wave 3-comb
   ISYM   =      2    0-nonsym 1-usesym 2-fastsym
   LCORR  =      T    Harris-Foulkes like correction to forces

   POTIM  = 0.5000    time-step for ionic-motion
   TEIN   =    0.0    initial temperature
   TEBEG  =    0.0;   TEEND  =   0.0 temperature during run
   SMASS  =  -3.00    Nose mass-parameter (am)
   estimated Nose-frequenzy (Omega)   =  0.10E-29 period in steps = 0.13E+47 mass=  -0.163E-26a.u.
   SCALEE = 1.0000    scale energy and forces
   NPACO  =    256;   APACO  = 10.0  distance and # of slots for P.C.
   PSTRESS=    0.0 pullay stress

  Mass of Ions in am
   POMASS =  12.01 16.00 24.30 16.00
  Ionic Valenz
   ZVAL   =   4.00  6.00  8.00  6.00
  Atomic Wigner-Seitz radii
   RWIGS  =  -1.00 -1.00 -1.00 -1.00
  virtual crystal weights 
   VCA    =   1.00  1.00  1.00  1.00
   NELECT =     458.0000    total number of electrons
   NUPDOWN=      -1.0000    fix difference up-down

 DOS related values:
   EMIN   =  10.00;   EMAX   =-10.00  energy-range for DOS
   EFERMI =   0.00
   ISMEAR =     0;   SIGMA  =   0.05  broadening in eV -4-tet -1-fermi 0-gaus

 Electronic relaxation 2 (details)
   IALGO  =     58    algorithm
   LDIAG  =      T    sub-space diagonalisation (order eigenvalues)
   LSUBROT=      F    optimize rotation matrix (better conditioning)
   TURBO    =      0    0=normal 1=particle mesh
   IRESTART =      0    0=no restart 2=restart with 2 vectors
   NREBOOT  =      0    no. of reboots
   NMIN     =      0    reboot dimension
   EREF     =   0.00    reference energy to select bands
   IMIX   =      4    mixing-type and parameters
     AMIX     =   0.40;   BMIX     =  1.00
     AMIX_MAG =   1.60;   BMIX_MAG =  1.00
     AMIN     =   0.10
     WC   =   100.;   INIMIX=   1;  MIXPRE=   1;  MAXMIX= -45

 Intra band minimization:
   WEIMIN = 0.0000     energy-eigenvalue tresh-hold
   EBREAK =  0.82E-10  absolut break condition
   DEPER  =   0.30     relativ break condition  

   TIME   =   0.40     timestep for ELM

  volume/ion in A,a.u.               =      28.03       189.17
  Fermi-wavevector in a.u.,A,eV,Ry     =   1.027937  1.942519 14.376646  1.056654
  Thomas-Fermi vector in A             =   2.161907
 
 Write flags
   LWAVE        =      F    write WAVECAR
   LDOWNSAMPLE  =      F    k-point downsampling of WAVECAR
   LCHARG       =      F    write CHGCAR
   LVTOT        =      F    write LOCPOT, total local potential
   LVHAR        =      F    write LOCPOT, Hartree potential only
   LELF         =      F    write electronic localiz. function (ELF)
   LORBIT       =      0    0 simple, 1 ext, 2 COOP (PROOUT), +10 PAW based schemes


 Dipole corrections
   LMONO  =      F    monopole corrections only (constant potential shift)
   LDIPOL =      T    correct potential (dipole corrections)
   IDIPOL =      3    1-x, 2-y, 3-z, 4-all directions 
   EPSILON=  1.0000000 bulk dielectric constant

 Exchange correlation treatment:
   GGA     =    MK    GGA type
   LEXCH   =    43    internal setting for exchange type
   LIBXC   =     F    Libxc                    
   VOSKOWN =     0    Vosko Wilk Nusair interpolation
   LHFCALC =     F    Hartree Fock is set to
   LHFONE  =     F    Hartree Fock one center treatment
   AEXX    =    0.0000 exact exchange contribution

 vdW DFT:
   LUSE_VDW   =     T    switch on vdW DFT
   Zab_VDW    =******    correlation parameter
   PARAM1     =0.1234
   PARAM2     =0.7114
   PARAM3     =0.0000
   -- rVV10 --
   BPARAM     = 6.3000
   CPARAM     = 0.0093

 Linear response parameters
   LEPSILON=     F    determine dielectric tensor
   LRPA    =     F    only Hartree local field effects (RPA)
   LNABLA  =     F    use nabla operator in PAW spheres
   LVEL    =     F    velocity operator in full k-point grid
   CSHIFT  =0.1000    complex shift for real part using Kramers Kronig
   OMEGAMAX=  -1.0    maximum frequency
   DEG_THRESHOLD= 0.2000000E-02 threshold for treating states as degnerate
   RTIME   =   -0.100 relaxation time in fs
  (WPLASMAI=    0.000 imaginary part of plasma frequency in eV, 0.658/RTIME)
   DFIELD  = 0.0000000 0.0000000 0.0000000 field for delta impulse in time
 
  Optional k-point grid parameters
   LKPOINTS_OPT  =     F    use optional k-point grid
   KPOINTS_OPT_MODE=     1    mode for optional k-point grid
 
 Orbital magnetization related:
   ORBITALMAG=     F  switch on orbital magnetization
   LCHIMAG   =     F  perturbation theory with respect to B field
   DQ        =  0.001000  dq finite difference perturbation B field
   LLRAUG    =     F  two centre corrections for induced B field



--------------------------------------------------------------------------------------------------------


 Static calculation
 charge density and potential will be updated during run
 non-spin polarized calculation
 Conjugate gradient for all bands (Freysoldt, et al. PRB 79, 241103 (2009))
 preconditioned conjugated gradient                                        
 perform sub-space diagonalisation
    before iterative eigenvector-optimisation
 modified Broyden-mixing scheme, WC =      100.0
 initial mixing is a Kerker type mixing with AMIX =  0.4000 and BMIX =      1.0000
 Hartree-type preconditioning will be used
 using additional bands           75
 reciprocal scheme for non local part
 use partial core corrections
 no Harris-corrections to forces 
 use gradient corrections 
 use of overlap-Matrix (Vanderbilt PP)
 Gauss-broadening in eV      SIGMA  =   0.05


--------------------------------------------------------------------------------------------------------


  energy-cutoff  :      600.00
  volume of cell :     1850.08
      direct lattice vectors                 reciprocal lattice vectors
     8.440984654  0.000000000  0.000000000     0.118469591  0.000000000  0.000000000
     0.000000000  8.440984654  0.000000000     0.000000000  0.118469591  0.000000000
     0.000000000  0.000000000 25.965982408     0.000000000  0.000000000  0.038511926

  length of vectors
     8.440984654  8.440984654 25.965982408     0.118469591  0.118469591  0.038511926


 
 k-points in units of 2pi/SCALE and weight: pymatgen v2020.8.13 with grid density = 
   0.00000000  0.00000000  0.00000000       0.111
   0.03948986  0.00000000  0.00000000       0.444
   0.03948986  0.03948986  0.00000000       0.444
 
 k-points in reciprocal lattice and weights: pymatgen v2020.8.13 with grid density = 
   0.00000000  0.00000000  0.00000000       0.111
   0.33333333  0.00000000  0.00000000       0.444
   0.33333333  0.33333333  0.00000000       0.444
 
 position of ions in fractional coordinates (direct lattice) 
   0.50000000  0.50000000  0.64773835
   0.50000000  0.50000000  0.69190459
   0.00000000  0.75000000  0.30809541
   0.25000000  0.00000000  0.30809541
   0.00000000  0.00000000  0.38936505
   0.25000000  0.75000000  0.38936505
   0.00000000  0.74993927  0.47114265
   0.25006073  0.00000000  0.47114265
   0.00000000  0.00000000  0.55219234
   0.24985833  0.75014167  0.55204795
   0.00000000  0.25000000  0.30809541
   0.25000000  0.50000000  0.30809541
   0.00000000  0.50000000  0.38936505
   0.25000000  0.25000000  0.38936505
   0.00000000  0.25006073  0.47114265
   0.25037838  0.50000000  0.47125460
   0.00000000  0.50000000  0.55208552
   0.24985833  0.24985833  0.55204795
   0.50000000  0.75000000  0.30809541
   0.75000000  0.00000000  0.30809541
   0.50000000  0.00000000  0.38936505
   0.75000000  0.75000000  0.38936505
   0.50000000  0.74962162  0.47125460
   0.74993927  0.00000000  0.47114265
   0.50000000  0.00000000  0.55208552
   0.75014167  0.75014167  0.55204795
   0.50000000  0.25000000  0.30809541
   0.75000000  0.50000000  0.30809541
   0.50000000  0.50000000  0.38936505
   0.75000000  0.25000000  0.38936505
   0.50000000  0.25037838  0.47125460
   0.74962162  0.50000000  0.47125460
   0.50000000  0.50000000  0.55372988
   0.75014167  0.24985833  0.55204795
   0.00000000  0.75000000  0.38936505
   0.25000000  0.00000000  0.38936505
   0.00000000  0.00000000  0.30809541
   0.25000000  0.75000000  0.30809541
   0.00000000  0.75021853  0.55402750
   0.24978147  0.00000000  0.55402750
   0.00000000  0.00000000  0.47091810
   0.24994577  0.75005423  0.47095853
   0.00000000  0.25000000  0.38936505
   0.25000000  0.50000000  0.38936505
   0.00000000  0.50000000  0.30809541
   0.25000000  0.25000000  0.30809541
   0.00000000  0.24978147  0.55402750
   0.24882271  0.50000000  0.55394832
   0.00000000  0.50000000  0.47087930
   0.24994577  0.24994577  0.47095853
   0.50000000  0.75000000  0.38936505
   0.75000000  0.00000000  0.38936505
   0.50000000  0.00000000  0.30809541
   0.75000000  0.75000000  0.30809541
   0.50000000  0.75117729  0.55394832
   0.75021853  0.00000000  0.55402750
   0.50000000  0.00000000  0.47087930
   0.75005423  0.75005423  0.47095853
   0.50000000  0.25000000  0.38936505
   0.75000000  0.50000000  0.38936505
   0.50000000  0.50000000  0.30809541
   0.75000000  0.25000000  0.30809541
   0.50000000  0.24882271  0.55394832
   0.75117729  0.50000000  0.55394832
   0.50000000  0.50000000  0.47126433
   0.75005423  0.24994577  0.47095853
 
 position of ions in cartesian coordinates  (Angst):
   4.22049233  4.22049233 16.81916259
   4.22049233  4.22049233 17.96598241
   0.00000000  6.33073849  8.00000000
   2.11024616  0.00000000  8.00000000
   0.00000000  0.00000000 10.11024616
   2.11024616  6.33073849 10.11024616
   0.00000000  6.33022585 12.23368172
   2.11075880  0.00000000 12.23368172
   0.00000000  0.00000000 14.33821654
   2.10905031  6.33193435 14.33446740
   0.00000000  2.11024616  8.00000000
   2.11024616  4.22049233  8.00000000
   0.00000000  4.22049233 10.11024616
   2.11024616  2.11024616 10.11024616
   0.00000000  2.11075880 12.23368172
   2.11344006  4.22049233 12.23658877
   0.00000000  4.22049233 14.33544293
   2.10905031  2.10905031 14.33446740
   4.22049233  6.33073849  8.00000000
   6.33073849  0.00000000  8.00000000
   4.22049233  0.00000000 10.11024616
   6.33073849  6.33073849 10.11024616
   4.22049233  6.32754460 12.23658877
   6.33022585  0.00000000 12.23368172
   4.22049233  0.00000000 14.33544293
   6.33193435  6.33193435 14.33446740
   4.22049233  2.11024616  8.00000000
   6.33073849  4.22049233  8.00000000
   4.22049233  4.22049233 10.11024616
   6.33073849  2.11024616 10.11024616
   4.22049233  2.11344006 12.23658877
   6.32754460  4.22049233 12.23658877
   4.22049233  4.22049233 14.37814023
   6.33193435  2.10905031 14.33446740
   0.00000000  6.33073849 10.11024616
   2.11024616  0.00000000 10.11024616
   0.00000000  0.00000000  8.00000000
   2.11024616  6.33073849  8.00000000
   0.00000000  6.33258312 14.38586825
   2.10840153  0.00000000 14.38586825
   0.00000000  0.00000000 12.22785099
   2.10978841  6.33119624 12.22890095
   0.00000000  2.11024616 10.11024616
   2.11024616  4.22049233 10.11024616
   0.00000000  4.22049233  8.00000000
   2.11024616  2.11024616  8.00000000
   0.00000000  2.10840153 14.38586825
   2.10030867  4.22049233 14.38381232
   0.00000000  4.22049233 12.22684365
   2.10978841  2.10978841 12.22890095
   4.22049233  6.33073849 10.11024616
   6.33073849  0.00000000 10.11024616
   4.22049233  0.00000000  8.00000000
   6.33073849  6.33073849  8.00000000
   4.22049233  6.34067598 14.38381232
   6.33258312  0.00000000 14.38586825
   4.22049233  0.00000000 12.22684365
   6.33119624  6.33119624 12.22890095
   4.22049233  2.11024616 10.11024616
   6.33073849  4.22049233 10.11024616
   4.22049233  4.22049233  8.00000000
   6.33073849  2.11024616  8.00000000
   4.22049233  2.10030867 14.38381232
   6.34067598  4.22049233 14.38381232
   4.22049233  4.22049233 12.23684118
   6.33119624  2.10978841 12.22890095
 


--------------------------------------------------------------------------------------------------------


 k-point   1 :   0.0000 0.0000 0.0000  plane waves:   61707
 k-point   2 :   0.3333 0.0000 0.0000  plane waves:   61758
 k-point   3 :   0.3333 0.3333 0.0000  plane waves:   61768

 maximum and minimum number of plane-waves per node :     30904    30819

 maximum number of plane-waves:     61768
 maximum index in each direction: 
   IXMAX=   16   IYMAX=   16   IZMAX=   51
   IXMIN=  -17   IYMIN=  -17   IZMIN=  -51


 parallel 3D FFT for wavefunctions:
    minimum data exchange during FFTs selected (reduces bandwidth)
 parallel 3D FFT for charge:
    minimum data exchange during FFTs selected (reduces bandwidth)


 total amount of memory used by VASP MPI-rank0   130860. kBytes
=======================================================================

   base      :      30000. kBytes
   nonl-proj :      71442. kBytes
   fftplans  :       8237. kBytes
   grid      :      11854. kBytes
   one-center:        267. kBytes
   wavefun   :       9060. kBytes
 
     INWAV:  cpu time      0.0000: real time      0.0000
 Broyden mixing: mesh for mixing (old mesh)
   NGX = 33   NGY = 33   NGZ =103
  (NGX  =108   NGY  =108   NGZ  =320)
  gives a total of 112167 points

 initial charge density was supplied:
 charge density of overlapping atoms calculated
 number of electron     458.0000000 magnetization 
 keeping initial charge density in first step


--------------------------------------------------------------------------------------------------------


 Maximum index for augmentation-charges          344 (set IRDMAX)


--------------------------------------------------------------------------------------------------------


 First call to EWALD:  gamma=   0.144
 Maximum number of real-space cells 4x 4x 2
 Maximum number of reciprocal cells 2x 2x 5

    FEWALD:  cpu time      0.0020: real time      0.0020


--------------------------------------- Iteration      1(   1)  ---------------------------------------


vdW kernel read from vdw_kernel.bindat
  0.0000  0.2424  0.5071  0.7962  1.1119  1.4567  1.8333  2.2446  2.6937  3.1842
  3.7199  4.3049  4.9438  5.6415  6.4036  7.2358  8.1446  9.1372 10.2212 11.4050
 12.6979 14.1099 15.6519 17.3360 19.1751 21.1837 23.3773 25.7729 28.3892 31.2465
 34.3669 37.7748 41.4965 45.5611 50.0000
 
    POTLOK:  cpu time      0.3622: real time      0.3802
    SETDIJ:  cpu time      0.0897: real time      0.0918
    TRIAL :  cpu time      3.4806: real time      3.5306
    CORREC:  cpu time      0.0003: real time      0.0003
    --------------------------------------------
      LOOP:  cpu time      3.9378: real time      4.0095

 eigenvalue-minimisations  :  2280
 total energy-change (2. order) : 0.3557015E+04  (-0.3040465E+05)
 number of electron     458.0000000 magnetization 
 augmentation part      458.0000000 magnetization 

 DIPCOR: dipole corrections for dipol
 direction  3 min pos     1,
 dipolmoment           0.000000      0.000000      0.000986 electrons x Angstroem
 Tr[quadrupol]     -6318.695632

 energy correction for charged system         0.000000 eV
 dipol+quadrupol energy correction           -0.000000 eV
 added-field ion interaction          0.073735 eV  (added to PSCEN)


 Free energy of the ion-electron system (eV)
  ---------------------------------------------------
  alpha Z        PSCENC =       745.95519445
  Ewald energy   TEWEN  =    225857.27593705
  -Hartree energ DENC   =   -261365.24844075
  -exchange      EXHF   =         0.00000000
  -V(xc)+E(xc)   XCENC  =      1784.04861984
  PAW double counting   =     32339.39176546   -36140.44900584
  entropy T*S    EENTRO =        -0.01587987
  eigenvalues    EBANDS =     -8029.87574814
  atomic energy  EATOM  =     48365.93245855
  ---------------------------------------------------
  free energy    TOTEN  =      3557.01490074 eV

  energy without entropy =     3557.03078061  energy(sigma->0) =     3557.02284068


--------------------------------------------------------------------------------------------------------




--------------------------------------- Iteration      1(   2)  ---------------------------------------


    TRIAL :  cpu time      3.4968: real time      3.5131
    CORREC:  cpu time      0.0001: real time      0.0001
    --------------------------------------------
      LOOP:  cpu time      3.4991: real time      3.5199

 eigenvalue-minimisations  :  2280
 total energy-change (2. order) :-0.3650778E+04  (-0.3640189E+04)
 number of electron     458.0000000 magnetization 
 augmentation part      458.0000000 magnetization 

 DIPCOR: dipole corrections for dipol
 direction  3 min pos     1,
 dipolmoment           0.000000      0.000000      0.000986 electrons x Angstroem
 Tr[quadrupol]     -6318.695632

 energy correction for charged system         0.000000 eV
 dipol+quadrupol energy correction           -0.000000 eV
 added-field ion interaction          0.073735 eV  (added to PSCEN)


 Free energy of the ion-electron system (eV)
  ---------------------------------------------------
  alpha Z        PSCENC =       745.95519445
  Ewald energy   TEWEN  =    225857.27593705
  -Hartree energ DENC   =   -261365.24844075
  -exchange      EXHF   =         0.00000000
  -V(xc)+E(xc)   XCENC  =      1784.04861984
  PAW double counting   =     32339.39176546   -36140.44900584
  entropy T*S    EENTRO =        -0.00000000
  eigenvalues    EBANDS =    -11680.66948441
  atomic energy  EATOM  =     48365.93245855
  ---------------------------------------------------
  free energy    TOTEN  =       -93.76295566 eV

  energy without entropy =      -93.76295566  energy(sigma->0) =      -93.76295566


--------------------------------------------------------------------------------------------------------




--------------------------------------- Iteration      1(   3)  ---------------------------------------


    TRIAL :  cpu time      2.4867: real time      2.4992
    CORREC:  cpu time      0.0001: real time      0.0001
    --------------------------------------------
      LOOP:  cpu time      2.4877: real time      2.5032

 eigenvalue-minimisations  :  1824
 total energy-change (2. order) :-0.2444420E+03  (-0.2441706E+03)
 number of electron     458.0000000 magnetization 
 augmentation part      458.0000000 magnetization 

 DIPCOR: dipole corrections for dipol
 direction  3 min pos     1,
 dipolmoment           0.000000      0.000000      0.000986 electrons x Angstroem
 Tr[quadrupol]     -6318.695632

 energy correction for charged system         0.000000 eV
 dipol+quadrupol energy correction           -0.000000 eV
 added-field ion interaction          0.073735 eV  (added to PSCEN)


 Free energy of the ion-electron system (eV)
  ---------------------------------------------------
  alpha Z        PSCENC =       745.95519445
  Ewald energy   TEWEN  =    225857.27593705
  -Hartree energ DENC   =   -261365.24844075
  -exchange      EXHF   =         0.00000000
  -V(xc)+E(xc)   XCENC  =      1784.04861984
  PAW double counting   =     32339.39176546   -36140.44900584
  entropy T*S    EENTRO =        -0.00000000
  eigenvalues    EBANDS =    -11925.11151154
  atomic energy  EATOM  =     48365.93245855
  ---------------------------------------------------
  free energy    TOTEN  =      -338.20498280 eV

  energy without entropy =     -338.20498280  energy(sigma->0) =     -338.20498280


--------------------------------------------------------------------------------------------------------




--------------------------------------- Iteration      1(   4)  ---------------------------------------


    TRIAL :  cpu time      4.5304: real time      4.5516
    CORREC:  cpu time      0.0001: real time      0.0001
    --------------------------------------------
      LOOP:  cpu time      4.5318: real time      4.5556

 eigenvalue-minimisations  :  2736
 total energy-change (2. order) :-0.3674828E+01  (-0.3670861E+01)
 number of electron     458.0000000 magnetization 
 augmentation part      458.0000000 magnetization 

 DIPCOR: dipole corrections for dipol
 direction  3 min pos     1,
 dipolmoment           0.000000      0.000000      0.000986 electrons x Angstroem
 Tr[quadrupol]     -6318.695632

 energy correction for charged system         0.000000 eV
 dipol+quadrupol energy correction           -0.000000 eV
 added-field ion interaction          0.073735 eV  (added to PSCEN)


 Free energy of the ion-electron system (eV)
  ---------------------------------------------------
  alpha Z        PSCENC =       745.95519445
  Ewald energy   TEWEN  =    225857.27593705
  -Hartree energ DENC   =   -261365.24844075
  -exchange      EXHF   =         0.00000000
  -V(xc)+E(xc)   XCENC  =      1784.04861984
  PAW double counting   =     32339.39176546   -36140.44900584
  entropy T*S    EENTRO =        -0.00000000
  eigenvalues    EBANDS =    -11928.78633971
  atomic energy  EATOM  =     48365.93245855
  ---------------------------------------------------
  free energy    TOTEN  =      -341.87981096 eV

  energy without entropy =     -341.87981096  energy(sigma->0) =     -341.87981096


--------------------------------------------------------------------------------------------------------




--------------------------------------- Iteration      1(   5)  ---------------------------------------


    TRIAL :  cpu time      2.4573: real time      2.4904
    CORREC:  cpu time      0.0001: real time      0.0001
    CHARGE:  cpu time      0.0683: real time      0.0694
    --------------------------------------------
      LOOP:  cpu time      2.5276: real time      2.5637

 eigenvalue-minimisations  :  1824
 total energy-change (2. order) :-0.3039060E-01  (-0.3039024E-01)
 number of electron     457.9999712 magnetization 
 augmentation part      159.5840943 magnetization 

 DIPCOR: dipole corrections for dipol
 direction  3 min pos     1,
 dipolmoment           0.000000      0.000000      0.000986 electrons x Angstroem
 Tr[quadrupol]     -6318.695632

 energy correction for charged system         0.000000 eV
 dipol+quadrupol energy correction           -0.000000 eV
 added-field ion interaction          0.073735 eV  (added to PSCEN)


 Free energy of the ion-electron system (eV)
  ---------------------------------------------------
  alpha Z        PSCENC =       745.95519445
  Ewald energy   TEWEN  =    225857.27593705
  -Hartree energ DENC   =   -261365.24844075
  -exchange      EXHF   =         0.00000000
  -V(xc)+E(xc)   XCENC  =      1784.04861984
  PAW double counting   =     32339.39176546   -36140.44900584
  entropy T*S    EENTRO =        -0.00000000
  eigenvalues    EBANDS =    -11928.81673031
  atomic energy  EATOM  =     48365.93245855
  ---------------------------------------------------
  free energy    TOTEN  =      -341.91020156 eV

  energy without entropy =     -341.91020156  energy(sigma->0) =     -341.91020156


--------------------------------------------------------------------------------------------------------




--------------------------------------- Iteration      1(   6)  ---------------------------------------


    POTLOK:  cpu time      0.1902: real time      0.1910
    SETDIJ:  cpu time      0.0841: real time      0.0843
    TRIAL :  cpu time      0.9704: real time      0.9794
    CORREC:  cpu time      0.6094: real time      0.6124
    CHARGE:  cpu time      0.0627: real time      0.0630
    --------------------------------------------
      LOOP:  cpu time      1.9200: real time      1.9343

 eigenvalue-minimisations  :     0
 total energy-change (2. order) : 0.1774083E+03  (-0.9897422E+02)
 number of electron     457.9999556 magnetization 
 augmentation part      156.6617690 magnetization 

 DIPCOR: dipole corrections for dipol
 direction  3 min pos     1,
 dipolmoment           0.000000      0.000000      0.189675 electrons x Angstroem
 Tr[quadrupol]     -6350.450551

 energy correction for charged system         0.000000 eV
 dipol+quadrupol energy correction           -0.001759 eV
 added-field ion interaction         14.182198 eV  (added to PSCEN)


 Free energy of the ion-electron system (eV)
  ---------------------------------------------------
  alpha Z        PSCENC =       778.97773590
  Ewald energy   TEWEN  =    225857.27593705
  -Hartree energ DENC   =   -265555.46550564
  -exchange      EXHF   =         0.00000000
  -V(xc)+E(xc)   XCENC  =      1908.26146933
  PAW double counting   =     36940.81770370   -40688.63662088
  entropy T*S    EENTRO =        -0.00000000
  eigenvalues    EBANDS =     -7771.66503456
  atomic energy  EATOM  =     48365.93245855
  ---------------------------------------------------
  free energy    TOTEN  =      -164.50185655 eV

  energy without entropy =     -164.50185655  energy(sigma->0) =     -164.50185655


--------------------------------------------------------------------------------------------------------




--------------------------------------- Iteration      1(   7)  ---------------------------------------


    POTLOK:  cpu time      0.1831: real time      0.1838
    SETDIJ:  cpu time      0.0840: real time      0.0850
    TRIAL :  cpu time      0.9386: real time      0.9438
    CORREC:  cpu time      0.5847: real time      0.5868
    CHARGE:  cpu time      0.0629: real time      0.0632
    --------------------------------------------
      LOOP:  cpu time      1.8551: real time      1.8666

 eigenvalue-minimisations  :     0
 total energy-change (2. order) :-0.9976878E+02  (-0.6495732E+01)
 number of electron     457.9999540 magnetization 
 augmentation part      154.8986736 magnetization 

 DIPCOR: dipole corrections for dipol
 direction  3 min pos     1,
 dipolmoment           0.000000      0.000000      0.179886 electrons x Angstroem
 Tr[quadrupol]     -6359.106353

 energy correction for charged system         0.000000 eV
 dipol+quadrupol energy correction           -0.001583 eV
 added-field ion interaction         13.450286 eV  (added to PSCEN)


 Free energy of the ion-electron system (eV)
  ---------------------------------------------------
  alpha Z        PSCENC =       763.33635711
  Ewald energy   TEWEN  =    225857.27593705
  -Hartree energ DENC   =   -263482.09210305
  -exchange      EXHF   =         0.00000000
  -V(xc)+E(xc)   XCENC  =      1838.17858790
  PAW double counting   =     35739.12488520   -39561.41198660
  entropy T*S    EENTRO =        -0.00000000
  eigenvalues    EBANDS =     -9784.61476850
  atomic energy  EATOM  =     48365.93245855
  ---------------------------------------------------
  free energy    TOTEN  =      -264.27063235 eV

  energy without entropy =     -264.27063235  energy(sigma->0) =     -264.27063235


--------------------------------------------------------------------------------------------------------




--------------------------------------- Iteration      1(   8)  ---------------------------------------


    POTLOK:  cpu time      0.1868: real time      0.1875
    SETDIJ:  cpu time      0.0827: real time      0.0829
    TRIAL :  cpu time      0.9433: real time      0.9480
    CORREC:  cpu time      0.5797: real time      0.5817
    CHARGE:  cpu time      0.0617: real time      0.0620
    --------------------------------------------
      LOOP:  cpu time      1.8558: real time      1.8659

 eigenvalue-minimisations  :     0
 total energy-change (2. order) :-0.6508936E+01  (-0.3868399E+01)
 number of electron     457.9999520 magnetization 
 augmentation part      155.0143905 magnetization 

 DIPCOR: dipole corrections for dipol
 direction  3 min pos     1,
 dipolmoment           0.000000      0.000000      0.123935 electrons x Angstroem
 Tr[quadrupol]     -6358.108897

 energy correction for charged system         0.000000 eV
 dipol+quadrupol energy correction           -0.000751 eV
 added-field ion interaction          9.266759 eV  (added to PSCEN)


 Free energy of the ion-electron system (eV)
  ---------------------------------------------------
  alpha Z        PSCENC =       758.29678538
  Ewald energy   TEWEN  =    225857.27593705
  -Hartree energ DENC   =   -263397.07375328
  -exchange      EXHF   =         0.00000000
  -V(xc)+E(xc)   XCENC  =      1828.84058954
  PAW double counting   =     35662.81029131   -39418.49953251
  entropy T*S    EENTRO =        -0.00000000
  eigenvalues    EBANDS =     -9928.36234415
  atomic energy  EATOM  =     48365.93245855
  ---------------------------------------------------
  free energy    TOTEN  =      -270.77956811 eV

  energy without entropy =     -270.77956811  energy(sigma->0) =     -270.77956811


--------------------------------------------------------------------------------------------------------




--------------------------------------- Iteration      1(   9)  ---------------------------------------


    POTLOK:  cpu time      0.1868: real time      0.1874
    SETDIJ:  cpu time      0.0837: real time      0.0839
    TRIAL :  cpu time      0.9329: real time      0.9377
    CORREC:  cpu time      0.5787: real time      0.5808
    CHARGE:  cpu time      0.0623: real time      0.0626
    --------------------------------------------
      LOOP:  cpu time      1.8457: real time      1.8563

 eigenvalue-minimisations  :     0
 total energy-change (2. order) :-0.3818924E+01  (-0.1806495E+01)
 number of electron     457.9999516 magnetization 
 augmentation part      155.0018941 magnetization 

 DIPCOR: dipole corrections for dipol
 direction  3 min pos     1,
 dipolmoment           0.000000      0.000000      0.135731 electrons x Angstroem
 Tr[quadrupol]     -6352.240961

 energy correction for charged system         0.000000 eV
 dipol+quadrupol energy correction           -0.000901 eV
 added-field ion interaction         10.148716 eV  (added to PSCEN)


 Free energy of the ion-electron system (eV)
  ---------------------------------------------------
  alpha Z        PSCENC =       753.70606014
  Ewald energy   TEWEN  =    225857.27593705
  -Hartree energ DENC   =   -263302.76009972
  -exchange      EXHF   =         0.00000000
  -V(xc)+E(xc)   XCENC  =      1828.63250886
  PAW double counting   =     35624.11055974   -39412.33314532
  entropy T*S    EENTRO =        -0.00000000
  eigenvalues    EBANDS =     -9989.16277138
  atomic energy  EATOM  =     48365.93245855
  ---------------------------------------------------
  free energy    TOTEN  =      -274.59849208 eV

  energy without entropy =     -274.59849208  energy(sigma->0) =     -274.59849208


--------------------------------------------------------------------------------------------------------




--------------------------------------- Iteration      1(  10)  ---------------------------------------


    POTLOK:  cpu time      0.1864: real time      0.1873
    SETDIJ:  cpu time      0.0839: real time      0.0841
    TRIAL :  cpu time      0.9329: real time      0.9378
    CORREC:  cpu time      0.5819: real time      0.5840
    CHARGE:  cpu time      0.0631: real time      0.0634
    --------------------------------------------
      LOOP:  cpu time      1.8493: real time      1.8608

 eigenvalue-minimisations  :     0
 total energy-change (2. order) :-0.1814736E+01  (-0.6249879E+00)
 number of electron     457.9999522 magnetization 
 augmentation part      154.9371709 magnetization 

 DIPCOR: dipole corrections for dipol
 direction  3 min pos     1,
 dipolmoment           0.000000      0.000000      0.164600 electrons x Angstroem
 Tr[quadrupol]     -6350.452035

 energy correction for charged system         0.000000 eV
 dipol+quadrupol energy correction           -0.001325 eV
 added-field ion interaction         12.307312 eV  (added to PSCEN)


 Free energy of the ion-electron system (eV)
  ---------------------------------------------------
  alpha Z        PSCENC =       755.79976886
  Ewald energy   TEWEN  =    225857.27593705
  -Hartree energ DENC   =   -263113.39531161
  -exchange      EXHF   =         0.00000000
  -V(xc)+E(xc)   XCENC  =      1827.00907131
  PAW double counting   =     35519.20200307   -39315.09568212
  entropy T*S    EENTRO =        -0.00000000
  eigenvalues    EBANDS =    -10173.14147298
  atomic energy  EATOM  =     48365.93245855
  ---------------------------------------------------
  free energy    TOTEN  =      -276.41322788 eV

  energy without entropy =     -276.41322788  energy(sigma->0) =     -276.41322788


--------------------------------------------------------------------------------------------------------




--------------------------------------- Iteration      1(  11)  ---------------------------------------


    POTLOK:  cpu time      0.1928: real time      0.1934
    SETDIJ:  cpu time      0.0828: real time      0.0830
    TRIAL :  cpu time      0.9299: real time      0.9358
    CORREC:  cpu time      0.5786: real time      0.5807
    CHARGE:  cpu time      0.0620: real time      0.0623
    --------------------------------------------
      LOOP:  cpu time      1.8472: real time      1.8593

 eigenvalue-minimisations  :     0
 total energy-change (2. order) :-0.6271158E+00  (-0.2131137E+00)
 number of electron     457.9999527 magnetization 
 augmentation part      155.0149607 magnetization 

 DIPCOR: dipole corrections for dipol
 direction  3 min pos     1,
 dipolmoment           0.000000      0.000000      0.147405 electrons x Angstroem
 Tr[quadrupol]     -6351.125392

 energy correction for charged system         0.000000 eV
 dipol+quadrupol energy correction           -0.001063 eV
 added-field ion interaction         11.021608 eV  (added to PSCEN)


 Free energy of the ion-electron system (eV)
  ---------------------------------------------------
  alpha Z        PSCENC =       757.82076995
  Ewald energy   TEWEN  =    225857.27593705
  -Hartree energ DENC   =   -263029.26646497
  -exchange      EXHF   =         0.00000000
  -V(xc)+E(xc)   XCENC  =      1825.98467723
  PAW double counting   =     35454.87405418   -39242.97738226
  entropy T*S    EENTRO =        -0.00000000
  eigenvalues    EBANDS =    -10266.68439343
  atomic energy  EATOM  =     48365.93245855
  ---------------------------------------------------
  free energy    TOTEN  =      -277.04034369 eV

  energy without entropy =     -277.04034369  energy(sigma->0) =     -277.04034369


--------------------------------------------------------------------------------------------------------




--------------------------------------- Iteration      1(  12)  ---------------------------------------


    POTLOK:  cpu time      0.1863: real time      0.1870
    SETDIJ:  cpu time      0.0827: real time      0.0829
    TRIAL :  cpu time      0.9261: real time      0.9309
    CORREC:  cpu time      0.5788: real time      0.5810
    CHARGE:  cpu time      0.0629: real time      0.0633
    --------------------------------------------
      LOOP:  cpu time      1.8380: real time      1.8490

 eigenvalue-minimisations  :     0
 total energy-change (2. order) :-0.2131172E+00  (-0.7533512E-01)
 number of electron     457.9999529 magnetization 
 augmentation part      155.1200345 magnetization 

 DIPCOR: dipole corrections for dipol
 direction  3 min pos     1,
 dipolmoment           0.000000      0.000000      0.134879 electrons x Angstroem
 Tr[quadrupol]     -6351.758588

 energy correction for charged system         0.000000 eV
 dipol+quadrupol energy correction           -0.000890 eV
 added-field ion interaction         10.085058 eV  (added to PSCEN)


 Free energy of the ion-electron system (eV)
  ---------------------------------------------------
  alpha Z        PSCENC =       756.93546096
  Ewald energy   TEWEN  =    225857.27593705
  -Hartree energ DENC   =   -263048.82883660
  -exchange      EXHF   =         0.00000000
  -V(xc)+E(xc)   XCENC  =      1826.17350677
  PAW double counting   =     35440.63091595   -39226.80916988
  entropy T*S    EENTRO =        -0.00000000
  eigenvalues    EBANDS =    -10248.56373366
  atomic energy  EATOM  =     48365.93245855
  ---------------------------------------------------
  free energy    TOTEN  =      -277.25346085 eV

  energy without entropy =     -277.25346085  energy(sigma->0) =     -277.25346085


--------------------------------------------------------------------------------------------------------




--------------------------------------- Iteration      1(  13)  ---------------------------------------


    POTLOK:  cpu time      0.1889: real time      0.1895
    SETDIJ:  cpu time      0.0830: real time      0.0832
    TRIAL :  cpu time      0.9236: real time      0.9291
    CORREC:  cpu time      0.5855: real time      0.5876
    CHARGE:  cpu time      0.0626: real time      0.0629
    --------------------------------------------
      LOOP:  cpu time      1.8453: real time      1.8563

 eigenvalue-minimisations  :     0
 total energy-change (2. order) :-0.7534015E-01  (-0.3369814E-01)
 number of electron     457.9999530 magnetization 
 augmentation part      155.1693318 magnetization 

 DIPCOR: dipole corrections for dipol
 direction  3 min pos     1,
 dipolmoment           0.000000      0.000000      0.131607 electrons x Angstroem
 Tr[quadrupol]     -6352.152080

 energy correction for charged system         0.000000 eV
 dipol+quadrupol energy correction           -0.000847 eV
 added-field ion interaction          9.840365 eV  (added to PSCEN)


 Free energy of the ion-electron system (eV)
  ---------------------------------------------------
  alpha Z        PSCENC =       755.92272577
  Ewald energy   TEWEN  =    225857.27593705
  -Hartree energ DENC   =   -263080.46189394
  -exchange      EXHF   =         0.00000000
  -V(xc)+E(xc)   XCENC  =      1826.43244373
  PAW double counting   =     35441.38756615   -39230.18478069
  entropy T*S    EENTRO =        -0.00000000
  eigenvalues    EBANDS =    -10213.63325762
  atomic energy  EATOM  =     48365.93245855
  ---------------------------------------------------
  free energy    TOTEN  =      -277.32880100 eV

  energy without entropy =     -277.32880100  energy(sigma->0) =     -277.32880100


--------------------------------------------------------------------------------------------------------




--------------------------------------- Iteration      1(  14)  ---------------------------------------


    POTLOK:  cpu time      0.1874: real time      0.1881
    SETDIJ:  cpu time      0.0838: real time      0.0840
[...]
    253       4.2242      0.00000
    254       4.2453      0.00000
    255       4.2675      0.00000
    256       4.3021      0.00000
    257       4.3333      0.00000
    258       4.8486      0.00000
    259       4.8766      0.00000
    260       4.9099      0.00000
    261       4.9184      0.00000
    262       4.9946      0.00000
    263       5.0584      0.00000
    264       5.0918      0.00000
    265       5.1665      0.00000
    266       5.4174      0.00000
    267       5.5548      0.00000
    268       5.5944      0.00000
    269       5.7273      0.00000
    270       5.8669      0.00000
    271       6.1824      0.00000
    272       6.2278      0.00000
    273       6.2768      0.00000
    274       6.5954      0.00000
    275       6.6300      0.00000
    276       6.6664      0.00000
    277       6.6868      0.00000
    278       6.7588      0.00000
    279       6.7731      0.00000
    280       6.7964      0.00000
    281       6.8522      0.00000
    282       7.0057      0.00000
    283       7.1085      0.00000
    284       7.1508      0.00000
    285       7.1890      0.00000
    286       7.2194      0.00000
    287       7.3526      0.00000
    288       7.4659      0.00000
    289       7.4840      0.00000
    290       7.5080      0.00000
    291       7.5902      0.00000
    292       7.8308      0.00000
    293       7.8874      0.00000
    294       7.9835      0.00000
    295       8.0541      0.00000
    296       8.1081      0.00000
    297       8.1759      0.00000
    298       8.1831      0.00000
    299       8.2797      0.00000
    300       8.3828      0.00000
    301       8.5035      0.00000
    302       8.6237      0.00000
    303       8.7179      0.00000
    304       8.9367      0.00000


--------------------------------------------------------------------------------------------------------


 soft charge-density along one line, spin component           1
         0         1         2         3         4         5         6         7         8         9
 total charge-density along one line
 
 pseudopotential strength for first ion, spin component:           1
 10.281  13.672  -0.000   0.025   0.000   0.000  -0.075  -0.000
 13.672  18.181  -0.000   0.032   0.000   0.000  -0.098  -0.000
 -0.000  -0.000  -4.451  -0.000  -0.000   8.737   0.000   0.000
  0.025   0.032  -0.000  -4.456   0.000   0.000   8.722  -0.000
  0.000   0.000  -0.000   0.000  -4.451   0.000  -0.000   8.737
  0.000   0.000   8.737   0.000   0.000 -19.292  -0.000  -0.000
 -0.075  -0.098   0.000   8.722  -0.000  -0.000 -19.212   0.000
 -0.000  -0.000   0.000  -0.000   8.737  -0.000   0.000 -19.292
 total augmentation occupancy for first ion, spin component:           1
  7.075  -3.202   0.000   2.049   0.000   0.000   0.368   0.000
 -3.202   1.852   0.000  -1.564  -0.000  -0.000  -0.221   0.000
  0.000   0.000   0.829   0.000   0.000   0.057   0.000   0.000
  2.049  -1.564   0.000   2.216   0.000   0.000   0.203   0.000
  0.000   0.000   0.000   0.000   0.829   0.000   0.000   0.057
  0.000   0.000   0.057   0.000   0.000   0.004   0.000   0.000
  0.368  -0.221   0.000   0.203   0.000   0.000   0.028  -0.000
  0.000   0.000   0.000  -0.000   0.057   0.000  -0.000   0.004


------------------------ aborting loop because EDIFF is reached ----------------------------------------


    FORLOC:  cpu time      0.0032: real time      0.0046
    FORNL :  cpu time      0.5105: real time      0.5128
    STRESS:  cpu time      2.6772: real time      2.7106
    FORCOR:  cpu time      0.1895: real time      0.1902
    OFIELD:  cpu time      0.0000: real time      0.0000

  FORCE on cell =-STRESS in cart. coord.  units (eV):
  Direction    XX          YY          ZZ          XY          YZ          ZX
  --------------------------------------------------------------------------------------
  Alpha Z   745.88146   745.88146   745.88146
  Ewald  246358.20813246358.20813************     0.00000    -0.00000    -0.00000
  Hartree256304.55773256304.55773************    -0.00000    -0.00000    -0.00000
  E(xc)   -2499.93439 -2499.93439 -2498.94200    -0.00000    -0.00000    -0.00000
  Local  ************************512418.17088    -0.00000     0.00000     0.00000
  n-local -2850.78340 -2851.35319 -2880.97162     0.07228     0.00000     0.00000
  augment  1058.06293  1058.06293  1048.08885     0.00000    -0.00000    -0.00000
  Kinetic  7495.05293  7496.83773  7515.61328    -0.73842     0.00000    -0.00000
  Fock        0.00000     0.00000     0.00000     0.00000     0.00000     0.00000
  -------------------------------------------------------------------------------------
  Total     -30.02645   -30.02645    -4.82136     0.00000     0.00000     0.00000
  in kB     -26.00301   -26.00301    -4.17531     0.00000     0.00000     0.00000
  external pressure =      -18.73 kB  Pullay stress =        0.00 kB


 VOLUME and BASIS-vectors are now :
 -----------------------------------------------------------------------------
  energy-cutoff  :      600.00
  volume of cell :     1850.08
      direct lattice vectors                 reciprocal lattice vectors
     8.440984654  0.000000000  0.000000000     0.118469591  0.000000000  0.000000000
     0.000000000  8.440984654  0.000000000     0.000000000  0.118469591  0.000000000
     0.000000000  0.000000000 25.965982408     0.000000000  0.000000000  0.038511926

  length of vectors
     8.440984654  8.440984654 25.965982408     0.118469591  0.118469591  0.038511926


 FORCES acting on ions:
    Electron-Ion                     Ewald-Force                    Non-Local-Force
 -----------------------------------------------------------------------------------------------
   0.141E-12 0.148E-12 -.105E+04   -.755E-14 0.444E-15 0.102E+04   0.229E-23 0.249E-23 0.270E+02
   0.312E-12 0.633E-12 -.184E+04   0.888E-15 0.888E-15 0.189E+04   0.156E-24 -.820E-23 -.603E+02
   -.283E-13 -.976E-01 0.234E+04   0.506E-13 0.979E-01 -.233E+04   -.217E-22 -.222E-03 -.679E+01
   0.976E-01 -.505E-13 0.234E+04   -.979E-01 -.493E-13 -.233E+04   0.222E-03 -.297E-23 -.679E+01
   -.563E-13 -.209E-12 0.807E+03   -.320E-13 0.213E-13 -.807E+03   -.186E-23 -.790E-23 0.474E+00
   0.465E+00 -.465E+00 0.808E+03   -.461E+00 0.461E+00 -.808E+03   -.275E-02 0.275E-02 0.498E+00
   -.453E-13 -.284E+01 -.714E+03   0.870E-13 0.282E+01 0.714E+03   0.122E-21 0.177E-01 -.121E+00
   0.284E+01 0.349E-13 -.714E+03   -.282E+01 0.533E-13 0.714E+03   -.177E-01 0.122E-21 -.121E+00
   -.461E-13 -.492E-12 -.224E+04   0.202E-10 -.202E-10 0.223E+04   -.140E-23 0.407E-24 0.570E+01
   0.181E+02 -.181E+02 -.222E+04   -.182E+02 0.182E+02 0.221E+04   0.802E-01 -.802E-01 0.579E+01
   -.296E-13 0.976E-01 0.234E+04   -.109E-12 -.979E-01 -.233E+04   0.233E-22 0.222E-03 -.679E+01
   0.901E-01 0.404E-12 0.234E+04   -.880E-01 -.249E-13 -.233E+04   -.171E-02 -.317E-22 -.679E+01
   -.505E-13 0.865E-12 0.808E+03   -.426E-13 -.320E-13 -.808E+03   0.590E-23 0.482E-23 0.435E+00
   0.465E+00 0.465E+00 0.808E+03   -.461E+00 -.461E+00 -.808E+03   -.275E-02 -.275E-02 0.498E+00
   -.480E-13 0.284E+01 -.714E+03   -.284E-13 -.282E+01 0.714E+03   -.202E-21 -.177E-01 -.121E+00
   0.412E+01 0.694E-12 -.707E+03   -.405E+01 0.000E+00 0.708E+03   -.761E-01 0.598E-21 -.233E+00
   -.481E-13 0.793E-12 -.222E+04   0.355E-14 -.320E-13 0.222E+04   -.619E-23 0.214E-23 0.571E+01
   0.181E+02 0.181E+02 -.222E+04   -.182E+02 -.182E+02 0.221E+04   0.802E-01 0.802E-01 0.579E+01
   0.798E-12 -.901E-01 0.234E+04   -.284E-13 0.880E-01 -.233E+04   0.168E-22 0.171E-02 -.679E+01
   -.976E-01 -.716E-13 0.234E+04   0.979E-01 -.622E-14 -.233E+04   -.222E-03 -.139E-22 -.679E+01
   0.854E-12 -.512E-12 0.808E+03   -.853E-13 -.320E-13 -.808E+03   -.247E-23 -.337E-23 0.435E+00
   -.465E+00 -.465E+00 0.808E+03   0.461E+00 0.461E+00 -.808E+03   0.275E-02 0.275E-02 0.498E+00
   0.811E-12 -.412E+01 -.707E+03   -.119E-12 0.405E+01 0.708E+03   -.683E-21 0.761E-01 -.233E+00
   -.284E+01 0.316E-13 -.714E+03   0.282E+01 0.000E+00 0.714E+03   0.177E-01 -.168E-21 -.121E+00
   0.800E-12 0.579E-12 -.222E+04   -.249E-13 -.178E-13 0.222E+04   0.724E-24 0.876E-24 0.571E+01
   -.181E+02 -.181E+02 -.222E+04   0.182E+02 0.182E+02 0.221E+04   -.802E-01 -.802E-01 0.579E+01
   0.801E-12 0.901E-01 0.234E+04   -.178E-13 -.880E-01 -.233E+04   -.372E-22 -.171E-02 -.679E+01
   -.901E-01 -.269E-11 0.234E+04   0.880E-01 -.693E-13 -.233E+04   0.171E-02 -.258E-22 -.679E+01
   0.848E-12 0.267E-11 0.808E+03   -.284E-13 0.000E+00 -.809E+03   -.105E-23 -.356E-23 0.570E+00
   -.465E+00 0.465E+00 0.808E+03   0.461E+00 -.461E+00 -.808E+03   0.275E-02 -.275E-02 0.498E+00
   0.817E-12 0.412E+01 -.707E+03   0.853E-13 -.405E+01 0.708E+03   -.221E-21 -.761E-01 -.233E+00
   -.412E+01 0.397E-12 -.707E+03   0.405E+01 -.853E-13 0.708E+03   0.761E-01 0.104E-21 -.233E+00
   0.806E-12 0.110E-11 -.215E+04   0.782E-13 -.249E-13 0.215E+04   -.446E-23 0.521E-23 0.380E+01
   -.181E+02 0.181E+02 -.222E+04   0.182E+02 -.182E+02 0.221E+04   -.802E-01 0.802E-01 0.579E+01
   -.689E-13 -.400E+00 0.605E+03   -.382E-13 0.395E+00 -.605E+03   0.325E-21 0.769E-02 -.862E-01
   0.400E+00 0.680E-12 0.605E+03   -.395E+00 0.338E-13 -.605E+03   -.769E-02 0.397E-21 -.862E-01
   -.760E-13 0.296E-12 0.175E+04   0.644E-13 0.449E-13 -.176E+04   0.825E-25 0.954E-23 0.360E+01
   0.698E-01 -.698E-01 0.175E+04   -.690E-01 0.690E-01 -.176E+04   -.996E-03 0.996E-03 0.360E+01
   -.735E-13 -.733E+01 -.170E+04   0.115E-13 0.727E+01 0.170E+04   -.199E-20 0.566E-01 -.514E+01
   0.733E+01 -.549E-12 -.170E+04   -.727E+01 0.364E-13 0.170E+04   -.566E-01 -.457E-21 -.514E+01
   -.640E-13 0.116E-12 -.532E+03   -.639E-13 0.284E-13 0.531E+03   0.235E-23 -.441E-23 0.257E+00
   0.257E+01 -.257E+01 -.527E+03   -.256E+01 0.256E+01 0.526E+03   -.882E-02 0.882E-02 0.323E+00
   -.847E-13 0.400E+00 0.605E+03   -.497E-13 -.395E+00 -.605E+03   -.392E-21 -.769E-02 -.862E-01
   0.374E+00 0.842E-13 0.606E+03   -.401E+00 0.506E-13 -.606E+03   0.357E-01 -.901E-22 -.107E+00
   -.650E-13 0.508E-12 0.175E+04   0.480E-13 0.546E-13 -.176E+04   0.173E-23 0.815E-23 0.360E+01
   0.698E-01 0.698E-01 0.175E+04   -.690E-01 -.690E-01 -.176E+04   -.996E-03 -.996E-03 0.360E+01
   -.644E-13 0.733E+01 -.170E+04   0.711E-13 -.727E+01 0.170E+04   -.872E-21 -.566E-01 -.514E+01
   0.236E+02 0.609E-12 -.167E+04   -.233E+02 0.100E-10 0.167E+04   -.329E+00 -.653E-20 -.513E+01
   -.482E-13 0.175E-12 -.527E+03   -.924E-13 -.213E-13 0.526E+03   0.573E-24 -.459E-23 0.274E+00
   0.257E+01 0.257E+01 -.527E+03   -.256E+01 -.256E+01 0.526E+03   -.882E-02 -.882E-02 0.323E+00
   0.275E-12 -.374E+00 0.606E+03   0.943E-12 0.401E+00 -.606E+03   -.176E-20 -.357E-01 -.107E+00
   -.400E+00 0.710E-12 0.605E+03   0.395E+00 0.213E-13 -.605E+03   0.769E-02 -.741E-22 -.862E-01
   0.212E-12 -.778E-12 0.175E+04   -.115E-13 0.506E-13 -.176E+04   -.775E-23 -.400E-24 0.360E+01
   -.698E-01 -.698E-01 0.175E+04   0.690E-01 0.690E-01 -.176E+04   0.996E-03 0.996E-03 0.360E+01
   0.295E-12 -.236E+02 -.167E+04   -.120E-10 0.233E+02 0.167E+04   -.820E-20 0.329E+00 -.513E+01
   -.733E+01 -.650E-12 -.170E+04   0.727E+01 0.355E-13 0.170E+04   0.566E-01 0.123E-21 -.514E+01
   0.250E-12 -.326E-12 -.527E+03   -.142E-13 -.497E-13 0.526E+03   -.161E-23 -.213E-24 0.274E+00
   -.257E+01 -.257E+01 -.527E+03   0.256E+01 0.256E+01 0.526E+03   0.882E-02 0.882E-02 0.323E+00
   0.296E-12 0.374E+00 0.606E+03   0.104E-11 -.401E+00 -.606E+03   -.102E-20 0.357E-01 -.107E+00
   -.374E+00 -.936E-12 0.606E+03   0.401E+00 -.988E-12 -.606E+03   -.357E-01 0.549E-21 -.107E+00
   0.200E-12 -.970E-12 0.175E+04   0.537E-13 0.524E-13 -.176E+04   -.118E-22 -.268E-22 0.360E+01
   -.698E-01 0.698E-01 0.175E+04   0.690E-01 -.690E-01 -.176E+04   0.996E-03 -.996E-03 0.360E+01
   0.277E-12 0.236E+02 -.167E+04   -.998E-11 -.233E+02 0.167E+04   0.101E-19 -.329E+00 -.513E+01
   -.236E+02 0.240E-11 -.167E+04   0.233E+02 0.100E-10 0.167E+04   0.329E+00 0.119E-19 -.513E+01
   0.312E-12 0.481E-12 -.527E+03   0.711E-14 -.142E-13 0.527E+03   -.203E-23 0.301E-23 -.203E+00
   -.257E+01 0.257E+01 -.527E+03   0.256E+01 -.256E+01 0.526E+03   0.882E-02 -.882E-02 0.323E+00
 -----------------------------------------------------------------------------------------------
   0.258E-10 0.374E-10 0.522E+02   -.462E-13 0.266E-12 0.102E-11   -.191E-16 0.746E-16 -.522E+02
 
 
 POSITION                                       TOTAL-FORCE (eV/Angst)
 -----------------------------------------------------------------------------------
      4.22049      4.22049     16.81916         0.000000     -0.000000      0.527348
      4.22049      4.22049     17.96598         0.000000     -0.000000     -0.566526
      0.00000      6.33074      8.00000         0.000000      0.000046      0.321425
      2.11025      0.00000      8.00000        -0.000046     -0.000000      0.321425
      0.00000      0.00000     10.11025         0.000000     -0.000000      0.038836
      2.11025      6.33074     10.11025         0.001521     -0.001521      0.040659
      0.00000      6.33023     12.23368         0.000000     -0.000507      0.028472
      2.11076      0.00000     12.23368         0.000507     -0.000000      0.028472
      0.00000      0.00000     14.33822         0.000000     -0.000000      0.025563
      2.10905      6.33193     14.33447        -0.008169      0.008169      0.016082
      0.00000      2.11025      8.00000         0.000000     -0.000046      0.321425
      2.11025      4.22049      8.00000         0.000447     -0.000000      0.321534
      0.00000      4.22049     10.11025         0.000000     -0.000000      0.048015
      2.11025      2.11025     10.11025         0.001521      0.001521      0.040659
      0.00000      2.11076     12.23368         0.000000      0.000507      0.028472
      2.11344      4.22049     12.23659        -0.005486     -0.000000      0.033196
      0.00000      4.22049     14.33544         0.000000     -0.000000      0.020307
      2.10905      2.10905     14.33447        -0.008169     -0.008169      0.016082
      4.22049      6.33074      8.00000         0.000000     -0.000447      0.321534
      6.33074      0.00000      8.00000         0.000046     -0.000000      0.321425
      4.22049      0.00000     10.11025         0.000000     -0.000000      0.048015
      6.33074      6.33074     10.11025        -0.001521     -0.001521      0.040659
      4.22049      6.32754     12.23659         0.000000      0.005486      0.033196
      6.33023      0.00000     12.23368        -0.000507     -0.000000      0.028472
      4.22049      0.00000     14.33544         0.000000     -0.000000      0.020307
      6.33193      6.33193     14.33447         0.008169      0.008169      0.016082
      4.22049      2.11025      8.00000         0.000000      0.000447      0.321534
      6.33074      4.22049      8.00000        -0.000447     -0.000000      0.321534
      4.22049      4.22049     10.11025         0.000000     -0.000000      0.052705
      6.33074      2.11025     10.11025        -0.001521      0.001521      0.040659
      4.22049      2.11344     12.23659         0.000000     -0.005486      0.033196
      6.32754      4.22049     12.23659         0.005486     -0.000000      0.033196
      4.22049      4.22049     14.37814         0.000000     -0.000000      0.121010
      6.33193      2.10905     14.33447         0.008169     -0.008169      0.016082
      0.00000      6.33074     10.11025         0.000000      0.002213      0.062389
      2.11025      0.00000     10.11025        -0.002213     -0.000000      0.062389
      0.00000      0.00000      8.00000         0.000000     -0.000000     -0.403620
      2.11025      6.33074      8.00000        -0.000283      0.000283     -0.403349
      0.00000      6.33258     14.38587         0.000000     -0.001707     -0.096722
      2.10840      0.00000     14.38587         0.001707     -0.000000     -0.096722
      0.00000      0.00000     12.22785         0.000000     -0.000000      0.015384
      2.10979      6.33120     12.22890         0.002965     -0.002965      0.009218
      0.00000      2.11025     10.11025         0.000000     -0.002213      0.062389
      2.11025      4.22049     10.11025         0.009231     -0.000000      0.070679
      0.00000      4.22049      8.00000         0.000000     -0.000000     -0.403506
      2.11025      2.11025      8.00000        -0.000283     -0.000283     -0.403349
      0.00000      2.10840     14.38587         0.000000      0.001707     -0.096722
      2.10031      4.22049     14.38381        -0.002887     -0.000000     -0.093969
      0.00000      4.22049     12.22684         0.000000     -0.000000      0.011441
      2.10979      2.10979     12.22890         0.002965      0.002965      0.009218
      4.22049      6.33074     10.11025         0.000000     -0.009231      0.070679
      6.33074      0.00000     10.11025         0.002213     -0.000000      0.062389
      4.22049      0.00000      8.00000         0.000000     -0.000000     -0.403506
      6.33074      6.33074      8.00000         0.000283      0.000283     -0.403349
      4.22049      6.34068     14.38381         0.000000      0.002887     -0.093969
      6.33258      0.00000     14.38587        -0.001707     -0.000000     -0.096722
      4.22049      0.00000     12.22684         0.000000     -0.000000      0.011441
      6.33120      6.33120     12.22890        -0.002965     -0.002965      0.009218
      4.22049      2.11025     10.11025         0.000000      0.009231      0.070679
      6.33074      4.22049     10.11025        -0.009231     -0.000000      0.070679
      4.22049      4.22049      8.00000         0.000000     -0.000000     -0.404370
      6.33074      2.11025      8.00000         0.000283     -0.000283     -0.403349
      4.22049      2.10031     14.38381         0.000000     -0.002887     -0.093969
      6.34068      4.22049     14.38381         0.002887     -0.000000     -0.093969
      4.22049      4.22049     12.23684         0.000000     -0.000000      0.002689
      6.33120      2.10979     12.22890        -0.002965      0.002965      0.009218
 -----------------------------------------------------------------------------------
    total drift:                                0.000000      0.000000      0.064625


--------------------------------------------------------------------------------------------------------



  FREE ENERGIE OF THE ION-ELECTRON SYSTEM (eV)
  ---------------------------------------------------
  free  energy   TOTEN  =      -277.38905896 eV

  energy  without entropy=     -277.38905896  energy(sigma->0) =     -277.38905896
 


--------------------------------------------------------------------------------------------------------


    POTLOK:  cpu time      0.2816: real time      0.2826


--------------------------------------------------------------------------------------------------------


     LOOP+:  cpu time     63.4307: real time     63.9347
    4ORBIT:  cpu time      0.0000: real time      0.0000

 total amount of memory used by VASP MPI-rank0   130860. kBytes
=======================================================================

   base      :      30000. kBytes
   nonl-proj :      71442. kBytes
   fftplans  :       8237. kBytes
   grid      :      11854. kBytes
   one-center:        267. kBytes
   wavefun   :       9060. kBytes
 
  
  
 General timing and accounting informations for this job:
 ========================================================
  
                  Total CPU time used (sec):       67.285
                            User time (sec):       66.460
                          System time (sec):        0.825
                         Elapsed time (sec):       69.093
  
                   Maximum memory used (kb):      489124.
                   Average memory used (kb):          N/A
  
                          Minor page faults:       211655
                          Major page faults:          116
                 Voluntary context switches:         3743
