 vasp.6.3.0 20Jan22 (build Mar 11 2022 13:48:16) complex                        
  
 executed on             LinuxIFC date 2023.06.23  14:31:31
 running on  304 total cores
 distrk:  each k-point on  304 cores,    1 groups
 distr:  one band on NCORE=   8 cores,   38 groups


--------------------------------------------------------------------------------------------------------


 INCAR:
   SYSTEM = MgO-rocksalt
   ISMEAR = 0
   SIGMA = 0.05
   EDIFF = 1E-7
   POTIM = 0.5
   ALGO = ALL
   ISTART = 0
   IBRION = 2
   NSW = 1000
   ISYM = 2
   ISIF = 2
   EDIFFG = -0.01
   DIPOL = 0.5 0.5 0.5
   IDIPOL = 3
   LDIPOL = .TRUE.
   GGA = MK
   LUSE_VDW = .TRUE.
   PARAM1 = 0.1234
   PARAM2 = 0.711357
   ZAB_VDW = -1.8867
   AGGAC = 0.0
   ENCUT = 600
   PREC = Normal
   LASPH = .TRUE.
   LREAL = .FALSE.
   ISPIN = 1
   NELM = 200
   NELMIN = 8
   NCORE = 8
   KPAR = 1
   LWAVE = .FALSE.
   LCHARG = .FALSE.

 POTCAR:    PAW_PBE Mg_pv 13Apr2007               
 POTCAR:    PAW_PBE O 08Apr2002                   
 -----------------------------------------------------------------------------
|                                                                             |
|           W    W    AA    RRRRR   N    N  II  N    N   GGGG   !!!           |
|           W    W   A  A   R    R  NN   N  II  NN   N  G    G  !!!           |
|           W    W  A    A  R    R  N N  N  II  N N  N  G       !!!           |
|           W WW W  AAAAAA  RRRRR   N  N N  II  N  N N  G  GGG   !            |
|           WW  WW  A    A  R   R   N   NN  II  N   NN  G    G                |
|           W    W  A    A  R    R  N    N  II  N    N   GGGG   !!!           |
|                                                                             |
|     For optimal performance we recommend to set                             |
|       NCORE = 2 up to number-of-cores-per-socket                            |
|     NCORE specifies how many cores store one orbital (NPAR=cpu/NCORE).      |
|     This setting can greatly improve the performance of VASP for DFT.       |
|     The default, NCORE=1 might be grossly inefficient on modern             |
|     multi-core architectures or massively parallel machines. Do your        |
|     own testing! More info at https://www.vasp.at/wiki/index.php/NCORE      |
|     Unfortunately you need to use the default for GW and RPA                |
|     calculations (for HF NCORE is supported but not extensively tested      |
|     yet).                                                                   |
|                                                                             |
 -----------------------------------------------------------------------------

 -----------------------------------------------------------------------------
|                                                                             |
|               ----> ADVICE to this user running VASP <----                  |
|                                                                             |
|     You have switched on vdW-DFT.                                           |
|     This routine was written and supplied by Jiri Klimes. We recommend      |
|     that you carefully read and cite the following publications:            |
|       J. Klimes, D.R. Bowler, A. Michelides                                 |
|          J. Phys.: Cond Matt. 22 022201 (2010)                              |
|       J. Klimes, D.R. Bowler, A. Michelides                                 |
|          Phys. Rev. B. 83, 195131 (2011)                                    |
|     and references therein.                                                 |
|                                                                             |
 -----------------------------------------------------------------------------

 POTCAR:    PAW_PBE Mg_pv 13Apr2007               
   SHA256 =  f474ac0dd33840b9ae76c01d57fea79fdf77cdfbb07d5ade72c65f83c709b62b Mg_pv/POTCAR          
   COPYR  = (c) Copyright 13Apr2007 Georg Kresse                                                    
   COPYR  = This file is part of the software VASP. Any use, copying, and all other rights are regul
   COPYR  = If you do not have a valid VASP license, you may not use, copy or distribute this file. 
   VRHFIN =Mg: p6s2                                                                                 
   LEXCH  = PE                                                                                      
   EATOM  =  1056.7344 eV,   77.6678 Ry                                                             
                                                                                                    
   TITEL  = PAW_PBE Mg_pv 13Apr2007                                                                 
   LULTRA =        F    use ultrasoft PP ?                                                          
   IUNSCR =        1    unscreen: 0-lin 1-nonlin 2-no                                               
   RPACOR =    1.500    partial core radius                                                         
   POMASS =   24.305; ZVAL   =    8.000    mass and valenz                                          
   RCORE  =    2.000    outmost cutoff radius                                                       
   RWIGS  =    2.000; RWIGS  =    1.058    wigner-seitz radius (au A)                               
   ENMAX  =  403.929; ENMIN  =  302.947 eV                                                          
   RCLOC  =    1.506    cutoff for local pot                                                        
   LCOR   =        T    correct aug charges                                                         
   LPAW   =        T    paw PP                                                                      
   EAUG   =  758.780                                                                                
   DEXC   =    0.000                                                                                
   RMAX   =    2.045    core radius for proj-oper                                                   
   RAUG   =    1.300    factor for augmentation sphere                                              
   RDEP   =    2.025    radius for radial grids                                                     
   RDEPT  =    1.557    core radius for aug-charge                                                  
                                                                                                    
   Atomic configuration                                                                             
    5 entries                                                                                       
     n  l   j            E        occ.                                                              
     1  0  0.50     -1259.6230   2.0000                                                             
     2  0  0.50       -79.8442   2.0000                                                             
     2  1  1.50       -46.6121   6.0000                                                             
     3  0  0.50        -4.7055   2.0000                                                             
     3  2  1.50        -1.3606   0.0000                                                             
   Description                                                                                      
     l       E           TYP  RCUT    TYP  RCUT                                                     
     1    -46.6121073     23  1.600                                                                 
     1      2.7211652     23  1.600                                                                 
     0     -4.7054661     23  2.000                                                                 
     0     61.2262170     23  2.000                                                                 
     2     -1.3605826     23  2.000                                                                 
  local pseudopotential read in
  partial core-charges read in
  partial kinetic energy density read in
  atomic valenz-charges read in
  non local Contribution for L=           1  read in
    real space projection operators read in
  non local Contribution for L=           1  read in
    real space projection operators read in
  non local Contribution for L=           0  read in
    real space projection operators read in
  non local Contribution for L=           0  read in
    real space projection operators read in
  non local Contribution for L=           2  read in
    real space projection operators read in
    PAW grid and wavefunctions read in
 
   number of l-projection  operators is LMAX  =           5
   number of lm-projection operators is LMMAX =          13
 
 POTCAR:    PAW_PBE O 08Apr2002                   
   SHA256 =  818f92134a0a090dccd8ba1447fa70422a3b330e708bb4f08108d8ae51209ddf O/POTCAR              
   COPYR  = (c) Copyright 08Apr2002 Georg Kresse                                                    
   COPYR  = This file is part of the software VASP. Any use, copying, and all other rights are regul
   COPYR  = If you do not have a valid VASP license, you may not use, copy or distribute this file. 
   VRHFIN =O: s2p4                                                                                  
   LEXCH  = PE                                                                                      
   EATOM  =   432.3788 eV,   31.7789 Ry                                                             
                                                                                                    
   TITEL  = PAW_PBE O 08Apr2002                                                                     
   LULTRA =        F    use ultrasoft PP ?                                                          
   IUNSCR =        1    unscreen: 0-lin 1-nonlin 2-no                                               
   RPACOR =    1.200    partial core radius                                                         
   POMASS =   16.000; ZVAL   =    6.000    mass and valenz                                          
   RCORE  =    1.520    outmost cutoff radius                                                       
   RWIGS  =    1.550; RWIGS  =    0.820    wigner-seitz radius (au A)                               
   ENMAX  =  400.000; ENMIN  =  300.000 eV                                                          
   ICORE  =        2    local potential                                                             
   LCOR   =        T    correct aug charges                                                         
   LPAW   =        T    paw PP                                                                      
   EAUG   =  605.392                                                                                
   DEXC   =    0.000                                                                                
   RMAX   =    1.553    core radius for proj-oper                                                   
   RAUG   =    1.300    factor for augmentation sphere                                              
   RDEP   =    1.550    radius for radial grids                                                     
   RDEPT  =    1.329    core radius for aug-charge                                                  
                                                                                                    
   Atomic configuration                                                                             
    4 entries                                                                                       
     n  l   j            E        occ.                                                              
     1  0  0.50      -514.6923   2.0000                                                             
     2  0  0.50       -23.9615   2.0000                                                             
     2  1  0.50        -9.0305   4.0000                                                             
     3  2  1.50        -9.5241   0.0000                                                             
   Description                                                                                      
     l       E           TYP  RCUT    TYP  RCUT                                                     
     0    -23.9615318     23  1.200                                                                 
     0     -9.5240782     23  1.200                                                                 
     1     -9.0304911     23  1.520                                                                 
     1      8.1634956     23  1.520                                                                 
     2     -9.5240782      7  1.500                                                                 
  local pseudopotential read in
  partial core-charges read in
  partial kinetic energy density read in
  kinetic energy density of atom read in
  atomic valenz-charges read in
  non local Contribution for L=           0  read in
    real space projection operators read in
  non local Contribution for L=           0  read in
    real space projection operators read in
  non local Contribution for L=           1  read in
    real space projection operators read in
  non local Contribution for L=           1  read in
    real space projection operators read in
    PAW grid and wavefunctions read in
 
   number of l-projection  operators is LMAX  =           4
   number of lm-projection operators is LMMAX =           8
 
 -----------------------------------------------------------------------------
|                                                                             |
|               ----> ADVICE to this user running VASP <----                  |
|                                                                             |
|     You have a (more or less) 'large supercell' and for larger cells it     |
|     might be more efficient to use real-space projection operators.         |
|     Therefore, try LREAL= Auto in the INCAR file.                           |
|     Mind: For very accurate calculation, you might also keep the            |
|     reciprocal projection scheme (i.e. LREAL=.FALSE.).                      |
|                                                                             |
 -----------------------------------------------------------------------------

 -----------------------------------------------------------------------------
|                                                                             |
|               ----> ADVICE to this user running VASP <----                  |
|                                                                             |
|     You enforced a specific xc type in the INCAR file but a different       |
|     type was found in the POTCAR file.                                      |
|     I HOPE YOU KNOW WHAT YOU ARE DOING!                                     |
|                                                                             |
 -----------------------------------------------------------------------------

  PAW_PBE Mg_pv 13Apr2007               :
 energy of atom  1       EATOM=-1056.7344
 kinetic energy error for atom=    0.0221 (will be added to EATOM!!)
  PAW_PBE O 08Apr2002                   :
 energy of atom  2       EATOM= -432.3788
 kinetic energy error for atom=    0.0168 (will be added to EATOM!!)
 
 
 POSCAR: Mg  O
  positions in direct lattice
  No initial velocities read in
 exchange correlation table for  LEXCH =       43
   RHO(1)=    0.500       N(1)  =     2000
   RHO(2)=  100.500       N(2)  =     4000
 


--------------------------------------------------------------------------------------------------------


 ion  position               nearest neighbor table
   1  0.250  0.000  0.352-  33 2.11  35 2.11  36 2.11  43 2.11  52 2.11
   2  0.500  0.250  0.352-  34 2.11  35 2.11  36 2.11  44 2.11  51 2.11
   3  0.250  0.250  0.451-  35 2.11  39 2.11  33 2.11  34 2.11  41 2.11  50 2.11
   4  0.500  0.000  0.451-  36 2.11  40 2.11  33 2.11  34 2.11  42 2.11  49 2.11
   5  0.250  0.000  0.549-  33 2.11  37 2.11  39 2.11  40 2.11  47 2.11  56 2.11
   6  0.500  0.250  0.549-  34 2.11  38 2.11  39 2.11  40 2.11  48 2.11  55 2.11
   7  0.250  0.250  0.648-  39 2.11  38 2.11  37 2.11  45 2.11  54 2.11
   8  0.500  0.000  0.648-  40 2.11  38 2.11  37 2.11  46 2.11  53 2.11
   9  0.250  0.500  0.352-  41 2.11  35 2.11  43 2.11  44 2.11  60 2.11
  10  0.500  0.750  0.352-  42 2.11  36 2.11  43 2.11  44 2.11  59 2.11
  11  0.250  0.750  0.451-  43 2.11  47 2.11  42 2.11  33 2.11  41 2.11  58 2.11
  12  0.500  0.500  0.451-  44 2.11  48 2.11  42 2.11  34 2.11  41 2.11  57 2.11
  13  0.250  0.500  0.549-  41 2.11  45 2.11  39 2.11  47 2.11  48 2.11  64 2.11
  14  0.500  0.750  0.549-  42 2.11  46 2.11  40 2.11  47 2.11  48 2.11  63 2.11
  15  0.250  0.750  0.648-  47 2.11  45 2.11  46 2.11  37 2.11  62 2.11
  16  0.500  0.500  0.648-  48 2.11  45 2.11  46 2.11  38 2.11  61 2.11
  17  0.750  0.000  0.352-  49 2.11  36 2.11  51 2.11  52 2.11  59 2.11
  18  0.000  0.250  0.352-  50 2.11  35 2.11  51 2.11  52 2.11  60 2.11
  19  0.750  0.250  0.451-  51 2.11  55 2.11  50 2.11  34 2.11  49 2.11  57 2.11
  20  0.000  0.000  0.451-  52 2.11  56 2.11  50 2.11  33 2.11  49 2.11  58 2.11
  21  0.750  0.000  0.549-  49 2.11  53 2.11  40 2.11  55 2.11  56 2.11  63 2.11
  22  0.000  0.250  0.549-  50 2.11  54 2.11  39 2.11  55 2.11  56 2.11  64 2.11
  23  0.750  0.250  0.648-  55 2.11  53 2.11  54 2.11  38 2.11  61 2.11
  24  0.000  0.000  0.648-  56 2.11  53 2.11  54 2.11  37 2.11  62 2.11
  25  0.750  0.500  0.352-  57 2.11  51 2.11  44 2.11  59 2.11  60 2.11
  26  0.000  0.750  0.352-  58 2.11  52 2.11  43 2.11  59 2.11  60 2.11
  27  0.750  0.750  0.451-  59 2.11  63 2.11  57 2.11  58 2.11  42 2.11  49 2.11
  28  0.000  0.500  0.451-  60 2.11  64 2.11  57 2.11  58 2.11  41 2.11  50 2.11
  29  0.750  0.500  0.549-  57 2.11  61 2.11  48 2.11  55 2.11  63 2.11  64 2.11
  30  0.000  0.750  0.549-  58 2.11  62 2.11  47 2.11  56 2.11  63 2.11  64 2.11
  31  0.750  0.750  0.648-  63 2.11  53 2.11  61 2.11  62 2.11  46 2.11
  32  0.000  0.500  0.648-  64 2.11  54 2.11  61 2.11  62 2.11  45 2.11
  33  0.250  0.000  0.451-   1 2.11   5 2.11   4 2.11   3 2.11  11 2.11  20 2.11
  34  0.500  0.250  0.451-   2 2.11   6 2.11   4 2.11   3 2.11  12 2.11  19 2.11
  35  0.250  0.250  0.352-   3 2.11   2 2.11   1 2.11   9 2.11  18 2.11
  36  0.500  0.000  0.352-   4 2.11   2 2.11   1 2.11  10 2.11  17 2.11
  37  0.250  0.000  0.648-   5 2.11   7 2.11   8 2.11  15 2.11  24 2.11
  38  0.500  0.250  0.648-   6 2.11   7 2.11   8 2.11  16 2.11  23 2.11
  39  0.250  0.250  0.549-   3 2.11   7 2.11   6 2.11   5 2.11  13 2.11  22 2.11
  40  0.500  0.000  0.549-   4 2.11   8 2.11   6 2.11   5 2.11  14 2.11  21 2.11
  41  0.250  0.500  0.451-   9 2.11  13 2.11  11 2.11  12 2.11   3 2.11  28 2.11
  42  0.500  0.750  0.451-  10 2.11  14 2.11  11 2.11  12 2.11   4 2.11  27 2.11
  43  0.250  0.750  0.352-  11 2.11   9 2.11  10 2.11   1 2.11  26 2.11
  44  0.500  0.500  0.352-  12 2.11   9 2.11  10 2.11   2 2.11  25 2.11
  45  0.250  0.500  0.648-  13 2.11   7 2.11  15 2.11  16 2.11  32 2.11
  46  0.500  0.750  0.648-  14 2.11   8 2.11  15 2.11  16 2.11  31 2.11
  47  0.250  0.750  0.549-  11 2.11  15 2.11  13 2.11  14 2.11   5 2.11  30 2.11
  48  0.500  0.500  0.549-  12 2.11  16 2.11  13 2.11  14 2.11   6 2.11  29 2.11
  49  0.750  0.000  0.451-  17 2.11  21 2.11  19 2.11  20 2.11   4 2.11  27 2.11
  50  0.000  0.250  0.451-  18 2.11  22 2.11  19 2.11  20 2.11   3 2.11  28 2.11
  51  0.750  0.250  0.352-  19 2.11  17 2.11  18 2.11   2 2.11  25 2.11
  52  0.000  0.000  0.352-  20 2.11  17 2.11  18 2.11   1 2.11  26 2.11
  53  0.750  0.000  0.648-  21 2.11   8 2.11  23 2.11  24 2.11  31 2.11
  54  0.000  0.250  0.648-  22 2.11   7 2.11  23 2.11  24 2.11  32 2.11
  55  0.750  0.250  0.549-  19 2.11  23 2.11  21 2.11  22 2.11   6 2.11  29 2.11
  56  0.000  0.000  0.549-  20 2.11  24 2.11  21 2.11  22 2.11   5 2.11  30 2.11
  57  0.750  0.500  0.451-  25 2.11  29 2.11  12 2.11  27 2.11  28 2.11  19 2.11
  58  0.000  0.750  0.451-  26 2.11  30 2.11  11 2.11  27 2.11  28 2.11  20 2.11
  59  0.750  0.750  0.352-  27 2.11  17 2.11  25 2.11  26 2.11  10 2.11
  60  0.000  0.500  0.352-  28 2.11  18 2.11  25 2.11  26 2.11   9 2.11
  61  0.750  0.500  0.648-  29 2.11  23 2.11  16 2.11  31 2.11  32 2.11
  62  0.000  0.750  0.648-  30 2.11  24 2.11  15 2.11  31 2.11  32 2.11
  63  0.750  0.750  0.549-  27 2.11  31 2.11  14 2.11  29 2.11  30 2.11  21 2.11
  64  0.000  0.500  0.549-  28 2.11  32 2.11  13 2.11  29 2.11  30 2.11  22 2.11
 
  LATTYP: Found a simple tetragonal cell.
 ALAT       =     8.4405822621
 C/A-ratio  =     2.5271285836
  
  Lattice vectors:
  
 A1 = (   8.4405822621,   0.0000000000,   0.0000000000)
 A2 = (   0.0000000000,   8.4405822621,   0.0000000000)
 A3 = (   0.0000000000,   0.0000000000,  21.3304366966)


Analysis of symmetry for initial positions (statically):
=====================================================================
 Subroutine PRICEL returns following result:
 
  LATTYP: Found a simple tetragonal cell.
 ALAT       =     2.9841964773
 C/A-ratio  =     7.1477990335
  
  Lattice vectors:
  
 A1 = (   2.1101455655,  -2.1101455655,   0.0000000000)
 A2 = (   2.1101455655,   2.1101455655,   0.0000000000)
 A3 = (   0.0000000000,   0.0000000000,  21.3304366966)
 
   8 primitive cells build up your supercell.
 

 Routine SETGRP: Setting up the symmetry group for a 
 simple tetragonal supercell.


 Subroutine GETGRP returns: Found 16 space group operations
 (whereof  8 operations were pure point group operations)
 out of a pool of 16 trial point group operations.


The static configuration has the point symmetry C_4v.
 The point group associated with its full space group is D_4h.


Analysis of symmetry for dynamics (positions and initial velocities):
=====================================================================
 Subroutine PRICEL returns following result:
 
  LATTYP: Found a simple tetragonal cell.
 ALAT       =     2.9841964773
 C/A-ratio  =     7.1477990335
  
  Lattice vectors:
  
 A1 = (   2.1101455655,  -2.1101455655,   0.0000000000)
 A2 = (   2.1101455655,   2.1101455655,   0.0000000000)
 A3 = (   0.0000000000,   0.0000000000,  21.3304366966)
 
   8 primitive cells build up your supercell.
 

 Routine SETGRP: Setting up the symmetry group for a 
 simple tetragonal supercell.


 Subroutine GETGRP returns: Found 16 space group operations
 (whereof  8 operations were pure point group operations)
 out of a pool of 16 trial point group operations.


The dynamic configuration has the point symmetry C_4v.
 The point group associated with its full space group is D_4h.


Analysis of constrained symmetry for selective dynamics:
=====================================================================
 Subroutine PRICEL returns following result:
 
  LATTYP: Found a simple tetragonal cell.
 ALAT       =     2.9841964773
 C/A-ratio  =     7.1477990335
  
  Lattice vectors:
  
 A1 = (   2.1101455655,  -2.1101455655,   0.0000000000)
 A2 = (   2.1101455655,   2.1101455655,   0.0000000000)
 A3 = (   0.0000000000,   0.0000000000,  21.3304366966)
 
   8 primitive cells build up your supercell.
 

 Routine SETGRP: Setting up the symmetry group for a 
 simple tetragonal supercell.


 Subroutine GETGRP returns: Found  8 space group operations
 (whereof  8 operations were pure point group operations)
 out of a pool of 16 trial point group operations.


The constrained configuration has the point symmetry C_4v.


 Subroutine INISYM returns: Found  8 space group operations
 (whereof  8 operations are pure point group operations),
 and found     8 'primitive' translations


----------------------------------------------------------------------------------------

                                     Primitive cell                                     

  volume of cell :     189.9567

  direct lattice vectors                    reciprocal lattice vectors
     2.110145566 -2.110145566  0.000000000     0.236950478 -0.236950478  0.000000000
     2.110145566  2.110145566  0.000000000     0.236950478  0.236950478  0.000000000
     0.000000000  0.000000000 21.330436697     0.000000000  0.000000000  0.046881366

  length of vectors
     2.984196477  2.984196477 21.330436697     0.335098579  0.335098579  0.046881366

  position of ions in fractional coordinates (direct lattice)
     0.500000000  0.500000000  0.351610242
     0.000000000  0.000000000  0.450536747
     0.500000000  0.500000000  0.549463253
     0.000000000  0.000000000  0.648389758
     0.500000000  0.500000000  0.450536747
     0.000000000  0.000000000  0.351610242
     0.500000000  0.500000000  0.648389758
     0.000000000  0.000000000  0.549463253

  ion indices of the primitive-cell ions
   primitive index   ion index
                 1           1
                 2           3
                 3           5
                 4           7
                 5          33
                 6          35
                 7          37
                 8          39

----------------------------------------------------------------------------------------

 
 
 KPOINTS: pymatgen v2020.8.13 with grid density = 

Automatic generation of k-mesh.
 Grid dimensions read from file:
 generate k-points for:    3    3    1

 Generating k-lattice:

  Cartesian coordinates                     Fractional coordinates (reciprocal lattice)
     0.039491746  0.000000000  0.000000000     0.333333333  0.000000000  0.000000000
     0.000000000  0.039491746  0.000000000     0.000000000  0.333333333  0.000000000
     0.000000000  0.000000000  0.046881366     0.000000000  0.000000000  1.000000000

  Length of vectors
     0.039491746  0.039491746  0.046881366

  Shift w.r.t. Gamma in fractional coordinates (k-lattice)
     0.000000000  0.000000000  0.000000000

 
 Subroutine IBZKPT returns following result:
 ===========================================
 
 Found      3 irreducible k-points:
 
 Following reciprocal coordinates:
            Coordinates               Weight
  0.000000  0.000000  0.000000      1.000000
  0.333333  0.000000  0.000000      4.000000
  0.333333  0.333333  0.000000      4.000000
 
 Following cartesian coordinates:
            Coordinates               Weight
  0.000000  0.000000  0.000000      1.000000
  0.039492  0.000000  0.000000      4.000000
  0.039492  0.039492  0.000000      4.000000
 


--------------------------------------------------------------------------------------------------------




 Dimension of arrays:
   k-points           NKPTS =      3   k-points in BZ     NKDIM =      3   number of bands    NBANDS=    304
   number of dos      NEDOS =    301   number of ions     NIONS =     64
   non local maximal  LDIM  =      5   non local SUM 2l+1 LMDIM =     13
   total plane-waves  NPLWV = 373248
   max r-space proj   IRMAX =      1   max aug-charges    IRDMAX=   5040
   dimension x,y,z NGX =    54 NGY =   54 NGZ =  128
   dimension x,y,z NGXF=   108 NGYF=  108 NGZF=  256
   support grid    NGXF=   108 NGYF=  108 NGZF=  256
   ions per type =              32  32
   NGX,Y,Z   is equivalent  to a cutoff of  10.64, 10.64,  9.98 a.u.
   NGXF,Y,Z  is equivalent  to a cutoff of  21.27, 21.27, 19.95 a.u.

 SYSTEM =  MgO-rocksalt                            
 POSCAR =  Mg  O                                   

 Startparameter for this run:
   NWRITE =      2    write-flag & timer
   PREC   = normal    normal or accurate (medium, high low for compatibility)
   ISTART =      0    job   : 0-new  1-cont  2-samecut
   ICHARG =      2    charge: 1-file 2-atom 10-const
   ISPIN  =      1    spin polarized calculation?
   LNONCOLLINEAR =      F non collinear calculations
   LSORBIT =      F    spin-orbit coupling
   INIWAV =      1    electr: 0-lowe 1-rand  2-diag
   LASPH  =      T    aspherical Exc in radial PAW
 Electronic Relaxation 1
   ENCUT  =  600.0 eV  44.10 Ry    6.64 a.u.  16.86 16.86 42.60*2*pi/ulx,y,z
   ENINI  =  600.0     initial cutoff
   ENAUG  =  758.8 eV  augmentation charge cutoff
   NELM   =    200;   NELMIN=  8; NELMDL= -5     # of ELM steps 
   EDIFF  = 0.1E-06   stopping-criterion for ELM
   LREAL  =      F    real-space projection
   NLSPLINE    = F    spline interpolate recip. space projectors
   LCOMPAT=      F    compatible to vasp.4.4
   GGA_COMPAT  = T    GGA compatible to vasp.4.4-vasp.4.6
   LMAXPAW     = -100 max onsite density
   LMAXMIX     =    2 max onsite mixed and CHGCAR
   VOSKOWN=      0    Vosko Wilk Nusair interpolation
   ROPT   =    0.00000   0.00000
 Ionic relaxation
   EDIFFG = -.1E-01   stopping-criterion for IOM
   NSW    =   1000    number of steps for IOM
   NBLOCK =      1;   KBLOCK =   1000    inner block; outer block 
   IBRION =      2    ionic relax: 0-MD 1-quasi-New 2-CG
   NFREE  =      1    steps in history (QN), initial steepest desc. (CG)
   ISIF   =      2    stress and relaxation
   IWAVPR =     11    prediction:  0-non 1-charg 2-wave 3-comb
   ISYM   =      2    0-nonsym 1-usesym 2-fastsym
   LCORR  =      T    Harris-Foulkes like correction to forces

   POTIM  = 0.5000    time-step for ionic-motion
   TEIN   =    0.0    initial temperature
   TEBEG  =    0.0;   TEEND  =   0.0 temperature during run
   SMASS  =  -3.00    Nose mass-parameter (am)
   estimated Nose-frequenzy (Omega)   =  0.10E-29 period in steps = 0.13E+47 mass=  -0.163E-26a.u.
   SCALEE = 1.0000    scale energy and forces
   NPACO  =    256;   APACO  = 10.0  distance and # of slots for P.C.
   PSTRESS=    0.0 pullay stress

  Mass of Ions in am
   POMASS =  24.30 16.00
  Ionic Valenz
   ZVAL   =   8.00  6.00
  Atomic Wigner-Seitz radii
   RWIGS  =  -1.00 -1.00
  virtual crystal weights 
   VCA    =   1.00  1.00
   NELECT =     448.0000    total number of electrons
   NUPDOWN=      -1.0000    fix difference up-down

 DOS related values:
   EMIN   =  10.00;   EMAX   =-10.00  energy-range for DOS
   EFERMI =   0.00
   ISMEAR =     0;   SIGMA  =   0.05  broadening in eV -4-tet -1-fermi 0-gaus

 Electronic relaxation 2 (details)
   IALGO  =     58    algorithm
   LDIAG  =      T    sub-space diagonalisation (order eigenvalues)
   LSUBROT=      F    optimize rotation matrix (better conditioning)
   TURBO    =      0    0=normal 1=particle mesh
   IRESTART =      0    0=no restart 2=restart with 2 vectors
   NREBOOT  =      0    no. of reboots
   NMIN     =      0    reboot dimension
   EREF     =   0.00    reference energy to select bands
   IMIX   =      4    mixing-type and parameters
     AMIX     =   0.40;   BMIX     =  1.00
     AMIX_MAG =   1.60;   BMIX_MAG =  1.00
     AMIN     =   0.10
     WC   =   100.;   INIMIX=   1;  MIXPRE=   1;  MAXMIX= -45

 Intra band minimization:
   WEIMIN = 0.0010     energy-eigenvalue tresh-hold
   EBREAK =  0.82E-10  absolut break condition
   DEPER  =   0.30     relativ break condition  

   TIME   =   0.40     timestep for ELM

  volume/ion in A,a.u.               =      23.74       160.24
  Fermi-wavevector in a.u.,A,eV,Ry     =   1.089564  2.058977 16.152145  1.187149
  Thomas-Fermi vector in A             =   2.225770
 
 Write flags
   LWAVE        =      F    write WAVECAR
   LDOWNSAMPLE  =      F    k-point downsampling of WAVECAR
   LCHARG       =      F    write CHGCAR
   LVTOT        =      F    write LOCPOT, total local potential
   LVHAR        =      F    write LOCPOT, Hartree potential only
   LELF         =      F    write electronic localiz. function (ELF)
   LORBIT       =      0    0 simple, 1 ext, 2 COOP (PROOUT), +10 PAW based schemes


 Dipole corrections
   LMONO  =      F    monopole corrections only (constant potential shift)
   LDIPOL =      T    correct potential (dipole corrections)
   IDIPOL =      3    1-x, 2-y, 3-z, 4-all directions 
   EPSILON=  1.0000000 bulk dielectric constant

 Exchange correlation treatment:
   GGA     =    MK    GGA type
   LEXCH   =    43    internal setting for exchange type
   LIBXC   =     F    Libxc                    
   VOSKOWN =     0    Vosko Wilk Nusair interpolation
   LHFCALC =     F    Hartree Fock is set to
   LHFONE  =     F    Hartree Fock one center treatment
   AEXX    =    0.0000 exact exchange contribution

 vdW DFT:
   LUSE_VDW   =     T    switch on vdW DFT
   Zab_VDW    =******    correlation parameter
   PARAM1     =0.1234
   PARAM2     =0.7114
   PARAM3     =0.0000
   -- rVV10 --
   BPARAM     = 6.3000
   CPARAM     = 0.0093

 Linear response parameters
   LEPSILON=     F    determine dielectric tensor
   LRPA    =     F    only Hartree local field effects (RPA)
   LNABLA  =     F    use nabla operator in PAW spheres
   LVEL    =     F    velocity operator in full k-point grid
   CSHIFT  =0.1000    complex shift for real part using Kramers Kronig
   OMEGAMAX=  -1.0    maximum frequency
   DEG_THRESHOLD= 0.2000000E-02 threshold for treating states as degnerate
   RTIME   =   -0.100 relaxation time in fs
  (WPLASMAI=    0.000 imaginary part of plasma frequency in eV, 0.658/RTIME)
   DFIELD  = 0.0000000 0.0000000 0.0000000 field for delta impulse in time
 
  Optional k-point grid parameters
   LKPOINTS_OPT  =     F    use optional k-point grid
   KPOINTS_OPT_MODE=     1    mode for optional k-point grid
 
 Orbital magnetization related:
   ORBITALMAG=     F  switch on orbital magnetization
   LCHIMAG   =     F  perturbation theory with respect to B field
   DQ        =  0.001000  dq finite difference perturbation B field
   LLRAUG    =     F  two centre corrections for induced B field



--------------------------------------------------------------------------------------------------------


 conjugate gradient relaxation of ions
   using selective dynamics as specified on POSCAR
 charge density and potential will be updated during run
 non-spin polarized calculation
 Conjugate gradient for all bands (Freysoldt, et al. PRB 79, 241103 (2009))
 preconditioned conjugated gradient                                        
 perform sub-space diagonalisation
    before iterative eigenvector-optimisation
 modified Broyden-mixing scheme, WC =      100.0
 initial mixing is a Kerker type mixing with AMIX =  0.4000 and BMIX =      1.0000
 Hartree-type preconditioning will be used
 using additional bands           80
 reciprocal scheme for non local part
 use partial core corrections
 no Harris-corrections to forces 
 use gradient corrections 
 use of overlap-Matrix (Vanderbilt PP)
 Gauss-broadening in eV      SIGMA  =   0.05


--------------------------------------------------------------------------------------------------------


  energy-cutoff  :      600.00
  volume of cell :     1519.65
      direct lattice vectors                 reciprocal lattice vectors
     8.440582262  0.000000000  0.000000000     0.118475239  0.000000000  0.000000000
     0.000000000  8.440582262  0.000000000     0.000000000  0.118475239  0.000000000
     0.000000000  0.000000000 21.330436697     0.000000000  0.000000000  0.046881366

  length of vectors
     8.440582262  8.440582262 21.330436697     0.118475239  0.118475239  0.046881366


 
 k-points in units of 2pi/SCALE and weight: pymatgen v2020.8.13 with grid density = 
   0.00000000  0.00000000  0.00000000       0.111
   0.03949175  0.00000000  0.00000000       0.444
   0.03949175  0.03949175  0.00000000       0.444
 
 k-points in reciprocal lattice and weights: pymatgen v2020.8.13 with grid density = 
   0.00000000  0.00000000  0.00000000       0.111
   0.33333333  0.00000000  0.00000000       0.444
   0.33333333  0.33333333  0.00000000       0.444
 
 position of ions in fractional coordinates (direct lattice) 
   0.25000000  0.00000000  0.35161024
   0.50000000  0.25000000  0.35161024
   0.25000000  0.25000000  0.45053675
   0.50000000  0.00000000  0.45053675
   0.25000000  0.00000000  0.54946325
   0.50000000  0.25000000  0.54946325
   0.25000000  0.25000000  0.64838976
   0.50000000  0.00000000  0.64838976
   0.25000000  0.50000000  0.35161024
   0.50000000  0.75000000  0.35161024
   0.25000000  0.75000000  0.45053675
   0.50000000  0.50000000  0.45053675
   0.25000000  0.50000000  0.54946325
   0.50000000  0.75000000  0.54946325
   0.25000000  0.75000000  0.64838976
   0.50000000  0.50000000  0.64838976
   0.75000000  0.00000000  0.35161024
   0.00000000  0.25000000  0.35161024
   0.75000000  0.25000000  0.45053675
   0.00000000  0.00000000  0.45053675
   0.75000000  0.00000000  0.54946325
   0.00000000  0.25000000  0.54946325
   0.75000000  0.25000000  0.64838976
   0.00000000  0.00000000  0.64838976
   0.75000000  0.50000000  0.35161024
   0.00000000  0.75000000  0.35161024
   0.75000000  0.75000000  0.45053675
   0.00000000  0.50000000  0.45053675
   0.75000000  0.50000000  0.54946325
   0.00000000  0.75000000  0.54946325
   0.75000000  0.75000000  0.64838976
   0.00000000  0.50000000  0.64838976
   0.25000000  0.00000000  0.45053675
   0.50000000  0.25000000  0.45053675
   0.25000000  0.25000000  0.35161024
   0.50000000  0.00000000  0.35161024
   0.25000000  0.00000000  0.64838976
   0.50000000  0.25000000  0.64838976
   0.25000000  0.25000000  0.54946325
   0.50000000  0.00000000  0.54946325
   0.25000000  0.50000000  0.45053675
   0.50000000  0.75000000  0.45053675
   0.25000000  0.75000000  0.35161024
   0.50000000  0.50000000  0.35161024
   0.25000000  0.50000000  0.64838976
   0.50000000  0.75000000  0.64838976
   0.25000000  0.75000000  0.54946325
   0.50000000  0.50000000  0.54946325
   0.75000000  0.00000000  0.45053675
   0.00000000  0.25000000  0.45053675
   0.75000000  0.25000000  0.35161024
   0.00000000  0.00000000  0.35161024
   0.75000000  0.00000000  0.64838976
   0.00000000  0.25000000  0.64838976
   0.75000000  0.25000000  0.54946325
   0.00000000  0.00000000  0.54946325
   0.75000000  0.50000000  0.45053675
   0.00000000  0.75000000  0.45053675
   0.75000000  0.75000000  0.35161024
   0.00000000  0.50000000  0.35161024
   0.75000000  0.50000000  0.64838976
   0.00000000  0.75000000  0.64838976
   0.75000000  0.75000000  0.54946325
   0.00000000  0.50000000  0.54946325
 
 position of ions in cartesian coordinates  (Angst):
   2.11014557  0.00000000  7.50000000
   4.22029113  2.11014557  7.50000000
   2.11014557  2.11014557  9.61014557
   4.22029113  0.00000000  9.61014557
   2.11014557  0.00000000 11.72029113
   4.22029113  2.11014557 11.72029113
   2.11014557  2.11014557 13.83043670
   4.22029113  0.00000000 13.83043670
   2.11014557  4.22029113  7.50000000
   4.22029113  6.33043670  7.50000000
   2.11014557  6.33043670  9.61014557
   4.22029113  4.22029113  9.61014557
   2.11014557  4.22029113 11.72029113
   4.22029113  6.33043670 11.72029113
   2.11014557  6.33043670 13.83043670
   4.22029113  4.22029113 13.83043670
   6.33043670  0.00000000  7.50000000
   0.00000000  2.11014557  7.50000000
   6.33043670  2.11014557  9.61014557
   0.00000000  0.00000000  9.61014557
   6.33043670  0.00000000 11.72029113
   0.00000000  2.11014557 11.72029113
   6.33043670  2.11014557 13.83043670
   0.00000000  0.00000000 13.83043670
   6.33043670  4.22029113  7.50000000
   0.00000000  6.33043670  7.50000000
   6.33043670  6.33043670  9.61014557
   0.00000000  4.22029113  9.61014557
   6.33043670  4.22029113 11.72029113
   0.00000000  6.33043670 11.72029113
   6.33043670  6.33043670 13.83043670
   0.00000000  4.22029113 13.83043670
   2.11014557  0.00000000  9.61014557
   4.22029113  2.11014557  9.61014557
   2.11014557  2.11014557  7.50000000
   4.22029113  0.00000000  7.50000000
   2.11014557  0.00000000 13.83043670
   4.22029113  2.11014557 13.83043670
   2.11014557  2.11014557 11.72029113
   4.22029113  0.00000000 11.72029113
   2.11014557  4.22029113  9.61014557
   4.22029113  6.33043670  9.61014557
   2.11014557  6.33043670  7.50000000
   4.22029113  4.22029113  7.50000000
   2.11014557  4.22029113 13.83043670
   4.22029113  6.33043670 13.83043670
   2.11014557  6.33043670 11.72029113
   4.22029113  4.22029113 11.72029113
   6.33043670  0.00000000  9.61014557
   0.00000000  2.11014557  9.61014557
   6.33043670  2.11014557  7.50000000
   0.00000000  0.00000000  7.50000000
   6.33043670  0.00000000 13.83043670
   0.00000000  2.11014557 13.83043670
   6.33043670  2.11014557 11.72029113
   0.00000000  0.00000000 11.72029113
   6.33043670  4.22029113  9.61014557
   0.00000000  6.33043670  9.61014557
   6.33043670  6.33043670  7.50000000
   0.00000000  4.22029113  7.50000000
   6.33043670  4.22029113 13.83043670
   0.00000000  6.33043670 13.83043670
   6.33043670  6.33043670 11.72029113
   0.00000000  4.22029113 11.72029113
 


--------------------------------------------------------------------------------------------------------


 k-point   1 :   0.0000 0.0000 0.0000  plane waves:   50729
 k-point   2 :   0.3333 0.0000 0.0000  plane waves:   50748
 k-point   3 :   0.3333 0.3333 0.0000  plane waves:   50714

 maximum and minimum number of plane-waves per node :      6377     6310

 maximum number of plane-waves:     50748
 maximum index in each direction: 
   IXMAX=   16   IYMAX=   16   IZMAX=   42
   IXMIN=  -17   IYMIN=  -17   IZMIN=  -42


 parallel 3D FFT for wavefunctions:
    minimum data exchange during FFTs selected (reduces bandwidth)
 parallel 3D FFT for charge:
    minimum data exchange during FFTs selected (reduces bandwidth)


 total amount of memory used by VASP MPI-rank0    53938. kBytes
=======================================================================

   base      :      30000. kBytes
   nonl-proj :      10520. kBytes
   fftplans  :       2371. kBytes
   grid      :       3498. kBytes
   one-center:         64. kBytes
   wavefun   :       7485. kBytes
 
     INWAV:  cpu time      0.0000: real time      0.0000
 Broyden mixing: mesh for mixing (old mesh)
   NGX = 33   NGY = 33   NGZ = 85
  (NGX  =108   NGY  =108   NGZ  =256)
  gives a total of  92565 points

 initial charge density was supplied:
 charge density of overlapping atoms calculated
 number of electron     448.0000000 magnetization 
 keeping initial charge density in first step


--------------------------------------------------------------------------------------------------------


 Maximum index for augmentation-charges          331 (set IRDMAX)


--------------------------------------------------------------------------------------------------------


 First call to EWALD:  gamma=   0.154
 Maximum number of real-space cells 4x 4x 2
 Maximum number of reciprocal cells 2x 2x 5

    FEWALD:  cpu time      0.0015: real time      0.0015


--------------------------------------- Iteration      1(   1)  ---------------------------------------


vdW kernel read from vdw_kernel.bindat
  0.0000  0.2424  0.5071  0.7962  1.1119  1.4567  1.8333  2.2446  2.6937  3.1842
  3.7199  4.3049  4.9438  5.6415  6.4036  7.2358  8.1446  9.1372 10.2212 11.4050
 12.6979 14.1099 15.6519 17.3360 19.1751 21.1837 23.3773 25.7729 28.3892 31.2465
 34.3669 37.7748 41.4965 45.5611 50.0000
 
    POTLOK:  cpu time      0.3352: real time      0.3495
    SETDIJ:  cpu time      0.0869: real time      0.0891
    TRIAL :  cpu time      1.0001: real time      1.0394
    CORREC:  cpu time      0.0007: real time      0.0007
    --------------------------------------------
      LOOP:  cpu time      1.4273: real time      1.4856

 eigenvalue-minimisations  :  2242
 total energy-change (2. order) : 0.4457387E+04  (-0.2981637E+05)
 number of electron     448.0000000 magnetization 
 augmentation part      448.0000000 magnetization 

 DIPCOR: dipole corrections for dipol
 direction  3 min pos     1,
 dipolmoment           0.000000      0.000000      0.000000 electrons x Angstroem
 Tr[quadrupol]     -5963.987791

 energy correction for charged system         0.000000 eV
 dipol+quadrupol energy correction           -0.000000 eV
 added-field ion interaction          0.000000 eV  (added to PSCEN)


 Free energy of the ion-electron system (eV)
  ---------------------------------------------------
  alpha Z        PSCENC =       875.35512513
  Ewald energy   TEWEN  =    141443.21405107
  -Hartree energ DENC   =   -176939.98578622
  -exchange      EXHF   =         0.00000000
  -V(xc)+E(xc)   XCENC  =      1744.91376335
  PAW double counting   =     31883.82553272   -35683.02952655
  entropy T*S    EENTRO =        -0.02375400
  eigenvalues    EBANDS =     -6650.76086953
  atomic energy  EATOM  =     47783.87840219
  ---------------------------------------------------
  free energy    TOTEN  =      4457.38693815 eV

  energy without entropy =     4457.41069216  energy(sigma->0) =     4457.39881516


--------------------------------------------------------------------------------------------------------




--------------------------------------- Iteration      1(   2)  ---------------------------------------


    TRIAL :  cpu time      0.8985: real time      0.9025
    CORREC:  cpu time      0.0001: real time      0.0001
    --------------------------------------------
      LOOP:  cpu time      0.9009: real time      0.9071

 eigenvalue-minimisations  :  2242
 total energy-change (2. order) :-0.4429336E+04  (-0.4334997E+04)
 number of electron     448.0000000 magnetization 
 augmentation part      448.0000000 magnetization 

 DIPCOR: dipole corrections for dipol
 direction  3 min pos     1,
 dipolmoment           0.000000      0.000000      0.000000 electrons x Angstroem
 Tr[quadrupol]     -5963.987791

 energy correction for charged system         0.000000 eV
 dipol+quadrupol energy correction           -0.000000 eV
 added-field ion interaction          0.000000 eV  (added to PSCEN)


 Free energy of the ion-electron system (eV)
  ---------------------------------------------------
  alpha Z        PSCENC =       875.35512513
  Ewald energy   TEWEN  =    141443.21405107
  -Hartree energ DENC   =   -176939.98578622
  -exchange      EXHF   =         0.00000000
  -V(xc)+E(xc)   XCENC  =      1744.91376335
  PAW double counting   =     31883.82553272   -35683.02952655
  entropy T*S    EENTRO =        -0.00000000
  eigenvalues    EBANDS =    -11080.12073051
  atomic energy  EATOM  =     47783.87840219
  ---------------------------------------------------
  free energy    TOTEN  =        28.05083117 eV

  energy without entropy =       28.05083117  energy(sigma->0) =       28.05083117


--------------------------------------------------------------------------------------------------------




--------------------------------------- Iteration      1(   3)  ---------------------------------------


    TRIAL :  cpu time      0.8732: real time      0.8773
    CORREC:  cpu time      0.0001: real time      0.0001
    --------------------------------------------
      LOOP:  cpu time      0.8743: real time      0.8812

 eigenvalue-minimisations  :  2204
 total energy-change (2. order) :-0.3489586E+03  (-0.3463027E+03)
 number of electron     448.0000000 magnetization 
 augmentation part      448.0000000 magnetization 

 DIPCOR: dipole corrections for dipol
 direction  3 min pos     1,
 dipolmoment           0.000000      0.000000      0.000000 electrons x Angstroem
 Tr[quadrupol]     -5963.987791

 energy correction for charged system         0.000000 eV
 dipol+quadrupol energy correction           -0.000000 eV
 added-field ion interaction          0.000000 eV  (added to PSCEN)


 Free energy of the ion-electron system (eV)
  ---------------------------------------------------
  alpha Z        PSCENC =       875.35512513
  Ewald energy   TEWEN  =    141443.21405107
  -Hartree energ DENC   =   -176939.98578622
  -exchange      EXHF   =         0.00000000
  -V(xc)+E(xc)   XCENC  =      1744.91376335
  PAW double counting   =     31883.82553272   -35683.02952655
  entropy T*S    EENTRO =        -0.00000000
  eigenvalues    EBANDS =    -11429.07933330
  atomic energy  EATOM  =     47783.87840219
  ---------------------------------------------------
  free energy    TOTEN  =      -320.90777162 eV

  energy without entropy =     -320.90777162  energy(sigma->0) =     -320.90777162


--------------------------------------------------------------------------------------------------------




--------------------------------------- Iteration      1(   4)  ---------------------------------------


    TRIAL :  cpu time      0.8996: real time      0.9040
    CORREC:  cpu time      0.0001: real time      0.0001
    --------------------------------------------
      LOOP:  cpu time      0.9013: real time      0.9078

 eigenvalue-minimisations  :  2166
 total energy-change (2. order) :-0.8164196E+01  (-0.8135775E+01)
 number of electron     448.0000000 magnetization 
 augmentation part      448.0000000 magnetization 

 DIPCOR: dipole corrections for dipol
 direction  3 min pos     1,
 dipolmoment           0.000000      0.000000      0.000000 electrons x Angstroem
 Tr[quadrupol]     -5963.987791

 energy correction for charged system         0.000000 eV
 dipol+quadrupol energy correction           -0.000000 eV
 added-field ion interaction          0.000000 eV  (added to PSCEN)


 Free energy of the ion-electron system (eV)
  ---------------------------------------------------
  alpha Z        PSCENC =       875.35512513
  Ewald energy   TEWEN  =    141443.21405107
  -Hartree energ DENC   =   -176939.98578622
  -exchange      EXHF   =         0.00000000
  -V(xc)+E(xc)   XCENC  =      1744.91376335
  PAW double counting   =     31883.82553272   -35683.02952655
  entropy T*S    EENTRO =        -0.00000000
  eigenvalues    EBANDS =    -11437.24352974
  atomic energy  EATOM  =     47783.87840219
  ---------------------------------------------------
  free energy    TOTEN  =      -329.07196806 eV

  energy without entropy =     -329.07196806  energy(sigma->0) =     -329.07196806


--------------------------------------------------------------------------------------------------------




--------------------------------------- Iteration      1(   5)  ---------------------------------------


    TRIAL :  cpu time      0.8967: real time      0.9004
    CORREC:  cpu time      0.0001: real time      0.0001
    CHARGE:  cpu time      0.0625: real time      0.0627
    --------------------------------------------
      LOOP:  cpu time      0.9598: real time      0.9669

 eigenvalue-minimisations  :  2242
 total energy-change (2. order) :-0.1373380E+00  (-0.1372805E+00)
 number of electron     447.9999306 magnetization 
 augmentation part      158.8799374 magnetization 

 DIPCOR: dipole corrections for dipol
 direction  3 min pos     1,
 dipolmoment           0.000000      0.000000      0.000000 electrons x Angstroem
 Tr[quadrupol]     -5963.987791

 energy correction for charged system         0.000000 eV
 dipol+quadrupol energy correction           -0.000000 eV
 added-field ion interaction          0.000000 eV  (added to PSCEN)


 Free energy of the ion-electron system (eV)
  ---------------------------------------------------
  alpha Z        PSCENC =       875.35512513
  Ewald energy   TEWEN  =    141443.21405107
  -Hartree energ DENC   =   -176939.98578622
  -exchange      EXHF   =         0.00000000
  -V(xc)+E(xc)   XCENC  =      1744.91376335
  PAW double counting   =     31883.82553272   -35683.02952655
  entropy T*S    EENTRO =        -0.00000000
  eigenvalues    EBANDS =    -11437.38086776
  atomic energy  EATOM  =     47783.87840219
  ---------------------------------------------------
  free energy    TOTEN  =      -329.20930608 eV

  energy without entropy =     -329.20930608  energy(sigma->0) =     -329.20930608


--------------------------------------------------------------------------------------------------------




--------------------------------------- Iteration      1(   6)  ---------------------------------------


    POTLOK:  cpu time      0.1408: real time      0.1413
    SETDIJ:  cpu time      0.0854: real time      0.0856
    TRIAL :  cpu time      0.4998: real time      0.5055
    CORREC:  cpu time      0.5453: real time      0.5480
    CHARGE:  cpu time      0.0610: real time      0.0611
    --------------------------------------------
      LOOP:  cpu time      1.3343: real time      1.3463

 eigenvalue-minimisations  :     0
 total energy-change (2. order) : 0.1770897E+03  (-0.9813646E+02)
 number of electron     447.9999234 magnetization 
 augmentation part      156.0416191 magnetization 

 DIPCOR: dipole corrections for dipol
 direction  3 min pos     1,
 dipolmoment           0.000000      0.000000     -0.017082 electrons x Angstroem
 Tr[quadrupol]     -5998.701017

 energy correction for charged system         0.000000 eV
 dipol+quadrupol energy correction           -0.000017 eV
 added-field ion interaction          0.000000 eV  (added to PSCEN)


 Free energy of the ion-electron system (eV)
  ---------------------------------------------------
  alpha Z        PSCENC =       875.35512513
  Ewald energy   TEWEN  =    141443.21405107
  -Hartree energ DENC   =   -180933.46806592
  -exchange      EXHF   =         0.00000000
  -V(xc)+E(xc)   XCENC  =      1867.41985607
  PAW double counting   =     36138.75932143   -39884.56408595
  entropy T*S    EENTRO =        -0.00000000
  eigenvalues    EBANDS =     -7442.71425221
  atomic energy  EATOM  =     47783.87840219
  ---------------------------------------------------
  free energy    TOTEN  =      -152.11964819 eV

  energy without entropy =     -152.11964819  energy(sigma->0) =     -152.11964819


--------------------------------------------------------------------------------------------------------




--------------------------------------- Iteration      1(   7)  ---------------------------------------


    POTLOK:  cpu time      0.1370: real time      0.1375
    SETDIJ:  cpu time      0.0928: real time      0.0931
    TRIAL :  cpu time      0.4780: real time      0.4798
    CORREC:  cpu time      0.5539: real time      0.5567
    CHARGE:  cpu time      0.0641: real time      0.0643
    --------------------------------------------
      LOOP:  cpu time      1.3272: real time      1.3351

 eigenvalue-minimisations  :     0
 total energy-change (2. order) :-0.9877682E+02  (-0.6750481E+01)
 number of electron     447.9999222 magnetization 
 augmentation part      154.1945974 magnetization 

 DIPCOR: dipole corrections for dipol
 direction  3 min pos     1,
 dipolmoment           0.000000      0.000000     -0.005637 electrons x Angstroem
 Tr[quadrupol]     -6005.689110

 energy correction for charged system         0.000000 eV
 dipol+quadrupol energy correction           -0.000002 eV
 added-field ion interaction         -0.000000 eV  (added to PSCEN)


 Free energy of the ion-electron system (eV)
  ---------------------------------------------------
  alpha Z        PSCENC =       875.35511430
  Ewald energy   TEWEN  =    141443.21405107
  -Hartree energ DENC   =   -178984.75240939
  -exchange      EXHF   =         0.00000000
  -V(xc)+E(xc)   XCENC  =      1798.86873213
  PAW double counting   =     34996.55645955   -38817.78706933
  entropy T*S    EENTRO =        -0.00000000
  eigenvalues    EBANDS =     -9346.22974727
  atomic energy  EATOM  =     47783.87840219
  ---------------------------------------------------
  free energy    TOTEN  =      -250.89646676 eV

  energy without entropy =     -250.89646676  energy(sigma->0) =     -250.89646676


--------------------------------------------------------------------------------------------------------




--------------------------------------- Iteration      1(   8)  ---------------------------------------


    POTLOK:  cpu time      0.1375: real time      0.1380
    SETDIJ:  cpu time      0.0857: real time      0.0859
    TRIAL :  cpu time      0.4819: real time      0.4837
    CORREC:  cpu time      0.5172: real time      0.5188
    CHARGE:  cpu time      0.0598: real time      0.0600
    --------------------------------------------
      LOOP:  cpu time      1.2833: real time      1.2903

 eigenvalue-minimisations  :     0
 total energy-change (2. order) :-0.6768171E+01  (-0.4169919E+01)
 number of electron     447.9999208 magnetization 
 augmentation part      154.3377270 magnetization 

 DIPCOR: dipole corrections for dipol
 direction  3 min pos     1,
 dipolmoment           0.000000      0.000000      0.000005 electrons x Angstroem
 Tr[quadrupol]     -6004.058958

 energy correction for charged system         0.000000 eV
 dipol+quadrupol energy correction           -0.000000 eV
 added-field ion interaction          0.000000 eV  (added to PSCEN)


 Free energy of the ion-electron system (eV)
  ---------------------------------------------------
  alpha Z        PSCENC =       875.35512458
  Ewald energy   TEWEN  =    141443.21405107
  -Hartree energ DENC   =   -178858.72896507
  -exchange      EXHF   =         0.00000000
  -V(xc)+E(xc)   XCENC  =      1788.88838349
  PAW double counting   =     34893.28688978   -38643.87128075
  entropy T*S    EENTRO =        -0.00000000
  eigenvalues    EBANDS =     -9539.68724262
  atomic energy  EATOM  =     47783.87840219
  ---------------------------------------------------
  free energy    TOTEN  =      -257.66463733 eV

  energy without entropy =     -257.66463733  energy(sigma->0) =     -257.66463733


--------------------------------------------------------------------------------------------------------




--------------------------------------- Iteration      1(   9)  ---------------------------------------


    POTLOK:  cpu time      0.1362: real time      0.1367
    SETDIJ:  cpu time      0.0854: real time      0.0856
    TRIAL :  cpu time      0.4705: real time      0.4722
    CORREC:  cpu time      0.5141: real time      0.5156
    CHARGE:  cpu time      0.0608: real time      0.0610
    --------------------------------------------
      LOOP:  cpu time      1.2683: real time      1.2757

 eigenvalue-minimisations  :     0
 total energy-change (2. order) :-0.4127643E+01  (-0.1940144E+01)
 number of electron     447.9999211 magnetization 
 augmentation part      154.3871005 magnetization 

 DIPCOR: dipole corrections for dipol
 direction  3 min pos     1,
 dipolmoment           0.000000      0.000000      0.000248 electrons x Angstroem
 Tr[quadrupol]     -5998.996057

 energy correction for charged system         0.000000 eV
 dipol+quadrupol energy correction           -0.000000 eV
 added-field ion interaction         -0.000000 eV  (added to PSCEN)


 Free energy of the ion-electron system (eV)
  ---------------------------------------------------
  alpha Z        PSCENC =       875.35512502
  Ewald energy   TEWEN  =    141443.21405107
  -Hartree energ DENC   =   -178750.19377564
  -exchange      EXHF   =         0.00000000
  -V(xc)+E(xc)   XCENC  =      1788.79384799
  PAW double counting   =     34834.06492715   -38619.67418585
  entropy T*S    EENTRO =        -0.00000000
  eigenvalues    EBANDS =     -9617.23067191
  atomic energy  EATOM  =     47783.87840219
  ---------------------------------------------------
  free energy    TOTEN  =      -261.79227999 eV

  energy without entropy =     -261.79227999  energy(sigma->0) =     -261.79227999


--------------------------------------------------------------------------------------------------------




--------------------------------------- Iteration      1(  10)  ---------------------------------------


    POTLOK:  cpu time      0.1378: real time      0.1384
    SETDIJ:  cpu time      0.0856: real time      0.0858
    TRIAL :  cpu time      0.4573: real time      0.4721
    CORREC:  cpu time      0.4999: real time      0.5086
    CHARGE:  cpu time      0.0600: real time      0.0602
    --------------------------------------------
      LOOP:  cpu time      1.2419: real time      1.2690

 eigenvalue-minimisations  :     0
 total energy-change (2. order) :-0.1943730E+01  (-0.7050583E+00)
 number of electron     447.9999218 magnetization 
 augmentation part      154.3175066 magnetization 

 DIPCOR: dipole corrections for dipol
 direction  3 min pos     1,
 dipolmoment           0.000000      0.000000      0.000104 electrons x Angstroem
 Tr[quadrupol]     -5997.709129

 energy correction for charged system         0.000000 eV
 dipol+quadrupol energy correction           -0.000000 eV
 added-field ion interaction          0.000000 eV  (added to PSCEN)


 Free energy of the ion-electron system (eV)
  ---------------------------------------------------
  alpha Z        PSCENC =       875.35512512
  Ewald energy   TEWEN  =    141443.21405107
  -Hartree energ DENC   =   -178613.55126789
  -exchange      EXHF   =         0.00000000
  -V(xc)+E(xc)   XCENC  =      1787.50697078
  PAW double counting   =     34727.77646322   -38523.52981020
  entropy T*S    EENTRO =        -0.00000000
  eigenvalues    EBANDS =     -9744.38594444
  atomic energy  EATOM  =     47783.87840219
  ---------------------------------------------------
  free energy    TOTEN  =      -263.73601016 eV

  energy without entropy =     -263.73601016  energy(sigma->0) =     -263.73601016


--------------------------------------------------------------------------------------------------------




--------------------------------------- Iteration      1(  11)  ---------------------------------------


    POTLOK:  cpu time      0.1401: real time      0.1422
    SETDIJ:  cpu time      0.0870: real time      0.0872
    TRIAL :  cpu time      0.4985: real time      0.5004
    CORREC:  cpu time      0.5368: real time      0.5386
    CHARGE:  cpu time      0.0618: real time      0.0620
    --------------------------------------------
      LOOP:  cpu time      1.3259: real time      1.3342

 eigenvalue-minimisations  :     0
 total energy-change (2. order) :-0.7058594E+00  (-0.2193422E+00)
 number of electron     447.9999221 magnetization 
 augmentation part      154.3846040 magnetization 

 DIPCOR: dipole corrections for dipol
 direction  3 min pos     1,
 dipolmoment           0.000000      0.000000      0.000962 electrons x Angstroem
 Tr[quadrupol]     -5997.793513

 energy correction for charged system         0.000000 eV
 dipol+quadrupol energy correction           -0.000000 eV
 added-field ion interaction          0.000000 eV  (added to PSCEN)


 Free energy of the ion-electron system (eV)
  ---------------------------------------------------
  alpha Z        PSCENC =       875.35512513
  Ewald energy   TEWEN  =    141443.21405107
  -Hartree energ DENC   =   -178547.30846478
  -exchange      EXHF   =         0.00000000
  -V(xc)+E(xc)   XCENC  =      1786.28183260
  PAW double counting   =     34659.58577408   -38446.31556211
  entropy T*S    EENTRO =        -0.00000000
  eigenvalues    EBANDS =     -9819.13302774
  atomic energy  EATOM  =     47783.87840219
  ---------------------------------------------------
  free energy    TOTEN  =      -264.44186957 eV

  energy without entropy =     -264.44186957  energy(sigma->0) =     -264.44186957


--------------------------------------------------------------------------------------------------------




--------------------------------------- Iteration      1(  12)  ---------------------------------------


    POTLOK:  cpu time      0.1401: real time      0.1406
    SETDIJ:  cpu time      0.0862: real time      0.0863
    TRIAL :  cpu time      0.4704: real time      0.4723
    CORREC:  cpu time      0.5064: real time      0.5078
    CHARGE:  cpu time      0.0609: real time      0.0611
    --------------------------------------------
      LOOP:  cpu time      1.2665: real time      1.2724

 eigenvalue-minimisations  :     0
 total energy-change (2. order) :-0.2193423E+00  (-0.6773310E-01)
 number of electron     447.9999222 magnetization 
 augmentation part      154.4827595 magnetization 

 DIPCOR: dipole corrections for dipol
 direction  3 min pos     1,
 dipolmoment           0.000000      0.000000      0.000784 electrons x Angstroem
 Tr[quadrupol]     -5997.939045

 energy correction for charged system         0.000000 eV
 dipol+quadrupol energy correction           -0.000000 eV
 added-field ion interaction          0.000000 eV  (added to PSCEN)


 Free energy of the ion-electron system (eV)
  ---------------------------------------------------
  alpha Z        PSCENC =       875.35512507
  Ewald energy   TEWEN  =    141443.21405107
  -Hartree energ DENC   =   -178543.91344097
  -exchange      EXHF   =         0.00000000
  -V(xc)+E(xc)   XCENC  =      1786.26420074
  PAW double counting   =     34643.61856316   -38428.11695812
  entropy T*S    EENTRO =        -0.00000000
  eigenvalues    EBANDS =     -9824.96115503
  atomic energy  EATOM  =     47783.87840219
  ---------------------------------------------------
  free energy    TOTEN  =      -264.66121189 eV

  energy without entropy =     -264.66121189  energy(sigma->0) =     -264.66121189


--------------------------------------------------------------------------------------------------------




--------------------------------------- Iteration      1(  13)  ---------------------------------------


    POTLOK:  cpu time      0.1376: real time      0.1381
    SETDIJ:  cpu time      0.0827: real time      0.0858
    TRIAL :  cpu time      0.4608: real time      0.4704
    CORREC:  cpu time      0.5003: real time      0.5018
    CHARGE:  cpu time      0.0602: real time      0.0604
    --------------------------------------------
      LOOP:  cpu time      1.2430: real time      1.2604

 eigenvalue-minimisations  :     0
 total energy-change (2. order) :-0.6772647E-01  (-0.2713278E-01)
 number of electron     447.9999223 magnetization 
 augmentation part      154.5200836 magnetization 

 DIPCOR: dipole corrections for dipol
 direction  3 min pos     1,
 dipolmoment           0.000000      0.000000      0.000280 electrons x Angstroem
 Tr[quadrupol]     -5998.051411

 energy correction for charged system         0.000000 eV
 dipol+quadrupol energy correction           -0.000000 eV
 added-field ion interaction          0.000000 eV  (added to PSCEN)


 Free energy of the ion-electron system (eV)
  ---------------------------------------------------
  alpha Z        PSCENC =       875.35512509
  Ewald energy   TEWEN  =    141443.21405107
  -Hartree energ DENC   =   -178552.72728114
  -exchange      EXHF   =         0.00000000
  -V(xc)+E(xc)   XCENC  =      1786.48011256
  PAW double counting   =     34644.45356355   -38431.90553308
  entropy T*S    EENTRO =        -0.00000000
  eigenvalues    EBANDS =     -9813.47737860
  atomic energy  EATOM  =     47783.87840219
  ---------------------------------------------------
  free energy    TOTEN  =      -264.72893836 eV

  energy without entropy =     -264.72893836  energy(sigma->0) =     -264.72893836


--------------------------------------------------------------------------------------------------------




--------------------------------------- Iteration      1(  14)  ---------------------------------------


    POTLOK:  cpu time      0.1391: real time      0.1396
    SETDIJ:  cpu time      0.0855: real time      0.0866
    TRIAL :  cpu time      0.4698: real time      0.4718
    CORREC:  cpu time      0.5078: real time      0.5094
    CHARGE:  cpu time      0.0604: real time      0.0606
    --------------------------------------------
      LOOP:  cpu time      1.2641: real time      1.2718

 eigenvalue-minimisations  :     0
 total energy-change (2. order) :-0.2712340E-01  (-0.1121604E-01)
 number of electron     447.9999223 magnetization 
 augmentation part      154.5088208 magnetization 

 DIPCOR: dipole corrections for dipol
 direction  3 min pos     1,
 dipolmoment           0.000000      0.000000     -0.000040 electrons x Angstroem
 Tr[quadrupol]     -5998.198473

 energy correction for charged system         0.000000 eV
 dipol+quadrupol energy correction           -0.000000 eV
 added-field ion interaction         -0.000000 eV  (added to PSCEN)


 Free energy of the ion-electron system (eV)
  ---------------------------------------------------
  alpha Z        PSCENC =       875.35512513
  Ewald energy   TEWEN  =    141443.21405107
  -Hartree energ DENC   =   -178557.52706296
  -exchange      EXHF   =         0.00000000
  -V(xc)+E(xc)   XCENC  =      1786.51406370
  PAW double counting   =     34647.02397687   -38435.87022127
  entropy T*S    EENTRO =        -0.00000000
  eigenvalues    EBANDS =     -9807.34439646
  atomic energy  EATOM  =     47783.87840219
  ---------------------------------------------------
  free energy    TOTEN  =      -264.75606175 eV

  energy without entropy =     -264.75606175  energy(sigma->0) =     -264.75606175


--------------------------------------------------------------------------------------------------------




--------------------------------------- Iteration      1(  15)  ---------------------------------------


    POTLOK:  cpu time      0.1382: real time      0.1386
    SETDIJ:  cpu time      0.0856: real time      0.0859
    TRIAL :  cpu time      0.4611: real time      0.4628
    CORREC:  cpu time      0.5099: real time      0.5115
    CHARGE:  cpu time      0.0605: real time      0.0607
    --------------------------------------------
      LOOP:  cpu time      1.2570: real time      1.2634

 eigenvalue-minimisations  :     0
 total energy-change (2. order) :-0.1121330E-01  (-0.4808311E-02)
 number of electron     447.9999222 magnetization 
 augmentation part      154.4976930 magnetization 

 DIPCOR: dipole corrections for dipol
 direction  3 min pos     1,
 dipolmoment           0.000000      0.000000     -0.000132 electrons x Angstroem
 Tr[quadrupol]     -5998.337762

 energy correction for charged system         0.000000 eV
 dipol+quadrupol energy correction           -0.000000 eV
 added-field ion interaction         -0.000000 eV  (added to PSCEN)


 Free energy of the ion-electron system (eV)
  ---------------------------------------------------
  alpha Z        PSCENC =       875.35512513
  Ewald energy   TEWEN  =    141443.21405107
  -Hartree energ DENC   =   -178563.31703194
  -exchange      EXHF   =         0.00000000
  -V(xc)+E(xc)   XCENC  =      1786.55442452
  PAW double counting   =     34651.34155659   -38439.35120953
  entropy T*S    EENTRO =        -0.00000000
  eigenvalues    EBANDS =     -9802.44259307
  atomic energy  EATOM  =     47783.87840219
  ---------------------------------------------------
  free energy    TOTEN  =      -264.76727505 eV

  energy without entropy =     -264.76727505  energy(sigma->0) =     -264.76727505


--------------------------------------------------------------------------------------------------------




--------------------------------------- Iteration      1(  16)  ---------------------------------------


    POTLOK:  cpu time      0.1382: real time      0.1387
    SETDIJ:  cpu time      0.0855: real time      0.0858
    TRIAL :  cpu time      0.4906: real time      0.4928
    CORREC:  cpu time      0.5076: real time      0.5092
    CHARGE:  cpu time      0.0617: real time      0.0618
    --------------------------------------------
      LOOP:  cpu time      1.2851: real time      1.2922

 eigenvalue-minimisations  :     0
 total energy-change (2. order) :-0.4803516E-02  (-0.1707669E-02)
 number of electron     447.9999222 magnetization 
 augmentation part      154.4953166 magnetization 

 DIPCOR: dipole corrections for dipol
 direction  3 min pos     1,
 dipolmoment           0.000000      0.000000     -0.000145 electrons x Angstroem
 Tr[quadrupol]     -5998.403122

 energy correction for charged system         0.000000 eV
 dipol+quadrupol energy correction           -0.000000 eV
 added-field ion interaction          0.000000 eV  (added to PSCEN)


 Free energy of the ion-electron system (eV)
  ---------------------------------------------------
  alpha Z        PSCENC =       875.35512513
  Ewald energy   TEWEN  =    141443.21405107
  -Hartree energ DENC   =   -178569.07858960
  -exchange      EXHF   =         0.00000000
  -V(xc)+E(xc)   XCENC  =      1786.64038181
  PAW double counting   =     34655.66361446   -38443.18329396
  entropy T*S    EENTRO =        -0.00000000
  eigenvalues    EBANDS =     -9797.26176965
  atomic energy  EATOM  =     47783.87840219
  ---------------------------------------------------
  free energy    TOTEN  =      -264.77207857 eV

  energy without entropy =     -264.77207857  energy(sigma->0) =     -264.77207857


--------------------------------------------------------------------------------------------------------




--------------------------------------- Iteration      1(  17)  ---------------------------------------


    POTLOK:  cpu time      0.1452: real time      0.1457
    SETDIJ:  cpu time      0.0864: real time      0.0866
    TRIAL :  cpu time      0.4670: real time      0.4687
    CORREC:  cpu time      0.5085: real time      0.5101
    CHARGE:  cpu time      0.0619: real time      0.0621
    --------------------------------------------
      LOOP:  cpu time      1.2708: real time      1.2771

 eigenvalue-minimisations  :     0
 total energy-change (2. order) :-0.1704969E-02  (-0.5958839E-03)
 number of electron     447.9999222 magnetization 
 augmentation part      154.4953896 magnetization 

 DIPCOR: dipole corrections for dipol
 direction  3 min pos     1,
 dipolmoment           0.000000      0.000000     -0.000117 electrons x Angstroem
 Tr[quadrupol]     -5998.413512

 energy correction for charged system         0.000000 eV
 dipol+quadrupol energy correction           -0.000000 eV
 added-field ion interaction          0.000000 eV  (added to PSCEN)


 Free energy of the ion-electron system (eV)
  ---------------------------------------------------
  alpha Z        PSCENC =       875.35512513
  Ewald energy   TEWEN  =    141443.21405107
  -Hartree energ DENC   =   -178570.81347652
  -exchange      EXHF   =         0.00000000
  -V(xc)+E(xc)   XCENC  =      1786.66648562
  PAW double counting   =     34657.75763061   -38445.47847212
  entropy T*S    EENTRO =        -0.00000000
  eigenvalues    EBANDS =     -9795.35352950
  atomic energy  EATOM  =     47783.87840219
  ---------------------------------------------------
  free energy    TOTEN  =      -264.77378354 eV

  energy without entropy =     -264.77378354  energy(sigma->0) =     -264.77378354


--------------------------------------------------------------------------------------------------------




--------------------------------------- Iteration      1(  18)  ---------------------------------------


    POTLOK:  cpu time      0.1373: real time      0.1379
    SETDIJ:  cpu time      0.0856: real time      0.0857
    TRIAL :  cpu time      0.4641: real time      0.4658
    CORREC:  cpu time      0.5041: real time      0.5056
    CHARGE:  cpu time      0.0606: real time      0.0607
    --------------------------------------------
      LOOP:  cpu time      1.2528: real time      1.2597

 eigenvalue-minimisations  :     0
 total energy-change (2. order) :-0.5949832E-03  (-0.1995152E-03)
 number of electron     447.9999222 magnetization 
 augmentation part      154.4954062 magnetization 

 DIPCOR: dipole corrections for dipol
 direction  3 min pos     1,
 dipolmoment           0.000000      0.000000     -0.000059 electrons x Angstroem
 Tr[quadrupol]     -5998.406861

 energy correction for charged system         0.000000 eV
 dipol+quadrupol energy correction           -0.000000 eV
 added-field ion interaction         -0.000000 eV  (added to PSCEN)


 Free energy of the ion-electron system (eV)
  ---------------------------------------------------
  alpha Z        PSCENC =       875.35512513
  Ewald energy   TEWEN  =    141443.21405107
  -Hartree energ DENC   =   -178571.13027621
  -exchange      EXHF   =         0.00000000
  -V(xc)+E(xc)   XCENC  =      1786.67938332
  PAW double counting   =     34659.50164122   -38447.29837867
  entropy T*S    EENTRO =        -0.00000000
  eigenvalues    EBANDS =     -9794.97432655
  atomic energy  EATOM  =     47783.87840219
  ---------------------------------------------------
  free energy    TOTEN  =      -264.77437852 eV

  energy without entropy =     -264.77437852  energy(sigma->0) =     -264.77437852


--------------------------------------------------------------------------------------------------------




--------------------------------------- Iteration      1(  19)  ---------------------------------------


    POTLOK:  cpu time      0.1387: real time      0.1392
    SETDIJ:  cpu time      0.0857: real time      0.0859
    TRIAL :  cpu time      0.4577: real time      0.4595
    CORREC:  cpu time      0.5042: real time      0.5058
    CHARGE:  cpu time      0.0609: real time      0.0611
    --------------------------------------------
      LOOP:  cpu time      1.2487: real time      1.2553

 eigenvalue-minimisations  :     0
 total energy-change (2. order) :-0.1995006E-03  (-0.7436414E-04)
 number of electron     447.9999222 magnetization 
 augmentation part      154.4947616 magnetization 

 DIPCOR: dipole corrections for dipol
 direction  3 min pos     1,
 dipolmoment           0.000000      0.000000     -0.000013 electrons x Angstroem
 Tr[quadrupol]     -5998.390949

 energy correction for charged system         0.000000 eV
 dipol+quadrupol energy correction           -0.000000 eV
 added-field ion interaction          0.000000 eV  (added to PSCEN)


 Free energy of the ion-electron system (eV)
  ---------------------------------------------------
  alpha Z        PSCENC =       875.35512513
  Ewald energy   TEWEN  =    141443.21405107
  -Hartree energ DENC   =   -178570.97569818
  -exchange      EXHF   =         0.00000000
  -V(xc)+E(xc)   XCENC  =      1786.69144157
  PAW double counting   =     34660.42135904   -38448.14012363
  entropy T*S    EENTRO =        -0.00000000
  eigenvalues    EBANDS =     -9795.21913520
  atomic energy  EATOM  =     47783.87840219
  ---------------------------------------------------
  free energy    TOTEN  =      -264.77457802 eV

  energy without entropy =     -264.77457802  energy(sigma->0) =     -264.77457802


--------------------------------------------------------------------------------------------------------




--------------------------------------- Iteration      1(  20)  ---------------------------------------


    POTLOK:  cpu time      0.1396: real time      0.1401
    SETDIJ:  cpu time      0.0854: real time      0.0855
    TRIAL :  cpu time      0.4658: real time      0.4684
    CORREC:  cpu time      0.5027: real time      0.5042
    CHARGE:  cpu time      0.0607: real time      0.0609
    --------------------------------------------
      LOOP:  cpu time      1.2556: real time      1.2631

 eigenvalue-minimisations  :     0
 total energy-change (2. order) :-0.7423529E-04  (-0.2431027E-04)
 number of electron     447.9999222 magnetization 
 augmentation part      154.4946858 magnetization 

 DIPCOR: dipole corrections for dipol
 direction  3 min pos     1,
 dipolmoment           0.000000      0.000000      0.000007 electrons x Angstroem
 Tr[quadrupol]     -5998.377587

 energy correction for charged system         0.000000 eV
 dipol+quadrupol energy correction           -0.000000 eV
 added-field ion interaction          0.000000 eV  (added to PSCEN)


 Free energy of the ion-electron system (eV)
  ---------------------------------------------------
  alpha Z        PSCENC =       875.35512513
  Ewald energy   TEWEN  =    141443.21405107
  -Hartree energ DENC   =   -178570.16580857
  -exchange      EXHF   =         0.00000000
  -V(xc)+E(xc)   XCENC  =      1786.68296981
  PAW double counting   =     34659.97291540   -38447.65802254
  entropy T*S    EENTRO =        -0.00000000
  eigenvalues    EBANDS =     -9796.05428474
  atomic energy  EATOM  =     47783.87840219
  ---------------------------------------------------
  free energy    TOTEN  =      -264.77465225 eV

  energy without entropy =     -264.77465225  energy(sigma->0) =     -264.77465225


[...]
    286       7.9435      0.00000
    287       8.0261      0.00000
    288       8.0795      0.00000
    289       8.0801      0.00000
    290       8.1054      0.00000
    291       8.1403      0.00000
    292       8.1466      0.00000
    293       8.1471      0.00000
    294       8.1722      0.00000
    295       8.1815      0.00000
    296       8.1918      0.00000
    297       8.2502      0.00000
    298       8.2579      0.00000
    299       8.7113      0.00000
    300       8.7348      0.00000
    301       8.7353      0.00000
    302       8.7816      0.00000
    303       8.8067      0.00000
    304       9.0263      0.00000


--------------------------------------------------------------------------------------------------------


 soft charge-density along one line, spin component           1
         0         1         2         3         4         5         6         7         8         9
 total charge-density along one line
 
 pseudopotential strength for first ion, spin component:           1
-51.988  -0.000  -0.000   7.265   0.000   0.000  -0.000   0.000
 -0.000 -52.044  -0.000   0.000   7.290   0.000  -0.031   0.079
 -0.000  -0.000 -51.988   0.000   0.000   7.265  -0.000   0.000
  7.265   0.000   0.000   4.190  -0.000  -0.000  -0.000   0.000
  0.000   7.290   0.000  -0.000   4.194  -0.000  -0.003   0.006
  0.000   0.000   7.265  -0.000  -0.000   4.190   0.000   0.000
 -0.000  -0.031  -0.000  -0.000  -0.003   0.000   2.993 -11.053
  0.000   0.079   0.000   0.000   0.006   0.000 -11.053  46.103
  0.000   0.000   0.000  -0.000  -0.000  -0.000  -0.000  -0.000
  0.009   0.000   0.000  -0.007  -0.000  -0.000   0.000  -0.000
 -0.000   0.010  -0.000   0.000  -0.015   0.000   0.008  -0.016
  0.000   0.000   0.009  -0.000  -0.000  -0.007   0.000  -0.000
 -0.000   0.000   0.000   0.000   0.000  -0.000  -0.000   0.000
 total augmentation occupancy for first ion, spin component:           1
  2.002   0.000   0.000  -0.004   0.000   0.000   0.000   0.000  -0.000  -0.008   0.000   0.000  -0.000
  0.000   2.002   0.000   0.000   0.002   0.000   0.001   0.004   0.000   0.000  -0.014   0.000   0.000
  0.000   0.000   2.002   0.000   0.000  -0.004   0.000   0.000  -0.000   0.000   0.000  -0.008  -0.000
 -0.004   0.000   0.000   0.078   0.000   0.000  -0.000  -0.000  -0.000   0.001   0.000  -0.000   0.000
  0.000   0.002   0.000   0.000   0.048   0.000   0.039   0.001  -0.000  -0.000   0.026  -0.000  -0.000
  0.000   0.000  -0.004   0.000   0.000   0.078   0.000   0.000   0.000  -0.000  -0.000   0.001   0.000
  0.000   0.001   0.000   0.000   0.039   0.000   0.833   0.013   0.000  -0.000  -0.039  -0.000   0.000
  0.000   0.004   0.000   0.000   0.001   0.000   0.013   0.000  -0.000   0.000  -0.001  -0.000   0.000
 -0.000   0.000  -0.000  -0.000  -0.000   0.000   0.000  -0.000   0.013   0.000   0.000   0.000   0.000
 -0.008   0.000   0.000   0.001  -0.000  -0.000   0.000  -0.000  -0.000   0.011   0.000   0.000   0.000
  0.000  -0.014   0.000  -0.000   0.026  -0.000  -0.039  -0.001   0.000  -0.000   0.032   0.000  -0.000
  0.000   0.000  -0.008  -0.000  -0.000   0.001  -0.000  -0.000  -0.000   0.000  -0.000   0.011  -0.000
 -0.000   0.000  -0.000   0.000  -0.000  -0.000   0.000   0.000   0.000   0.000  -0.000  -0.000   0.053


------------------------ aborting loop because EDIFF is reached ----------------------------------------


    FORLOC:  cpu time      0.0012: real time      0.0012
    FORNL :  cpu time      0.2509: real time      0.2516
    STRESS:  cpu time      0.5254: real time      0.5273
    FORCOR:  cpu time      0.1340: real time      0.1345
    OFIELD:  cpu time      0.0000: real time      0.0000

  FORCE on cell =-STRESS in cart. coord.  units (eV):
  Direction    XX          YY          ZZ          XY          YZ          ZX
  --------------------------------------------------------------------------------------
  Alpha Z   875.35513   875.35513   875.35513
  Ewald  161558.04197161558.04197************     0.00000    -0.00000    -0.00000
  Hartree171588.39922171588.39922************    -0.00000    -0.00000    -0.00000
  E(xc)   -2455.98402 -2455.98402 -2456.07766     0.00000    -0.00000     0.00000
  Local  ************************343414.74628    -0.00000     0.00000     0.00000
  n-local -2831.62504 -2832.22450 -2851.05023     0.07398    -0.00000     0.00000
  augment  1051.66405  1051.66405  1042.26199     0.00000    -0.00000     0.00000
  Kinetic  7303.50297  7305.36627  7343.29795    -0.74387    -0.00000     0.00000
  Fock        0.00000     0.00000     0.00000     0.00000     0.00000     0.00000
  -------------------------------------------------------------------------------------
  Total     -29.89524   -29.89524    -2.35860     0.00000     0.00000     0.00000
  in kB     -31.51868   -31.51868    -2.48668     0.00000     0.00000     0.00000
  external pressure =      -21.84 kB  Pullay stress =        0.00 kB


 VOLUME and BASIS-vectors are now :
 -----------------------------------------------------------------------------
  energy-cutoff  :      600.00
  volume of cell :     1519.65
      direct lattice vectors                 reciprocal lattice vectors
     8.440582262  0.000000000  0.000000000     0.118475239  0.000000000  0.000000000
     0.000000000  8.440582262  0.000000000     0.000000000  0.118475239  0.000000000
     0.000000000  0.000000000 21.330436697     0.000000000  0.000000000  0.046881366

  length of vectors
     8.440582262  8.440582262 21.330436697     0.118475239  0.118475239  0.046881366


 FORCES acting on ions:
    Electron-Ion                     Ewald-Force                    Non-Local-Force
 -----------------------------------------------------------------------------------------------
   0.270E-12 0.404E-12 0.207E+04   0.751E-13 0.405E-13 -.206E+04   -.861E-25 0.565E-25 -.679E+01
   0.899E-12 -.781E-12 0.207E+04   0.125E-12 0.422E-13 -.206E+04   0.287E-24 0.192E-24 -.679E+01
   0.335E-12 0.101E-12 0.685E+03   -.711E-14 0.142E-13 -.686E+03   -.759E-24 0.156E-24 0.435E+00
   0.829E-12 -.131E-12 0.685E+03   0.107E-12 0.102E-13 -.686E+03   0.315E-24 0.540E-25 0.435E+00
   0.316E-12 -.273E-12 -.690E+03   0.134E-10 0.134E-10 0.691E+03   -.337E-24 0.306E-23 -.245E+00
   0.793E-12 -.286E-12 -.690E+03   -.134E-10 -.134E-10 0.691E+03   -.192E-23 0.199E-23 -.245E+00
   0.253E-12 0.640E-12 -.206E+04   0.142E-13 0.355E-13 0.205E+04   0.267E-22 0.193E-23 0.596E+01
   0.871E-12 -.202E-13 -.206E+04   0.217E-13 0.212E-13 0.205E+04   0.294E-22 -.253E-23 0.596E+01
   0.268E-12 0.721E-12 0.207E+04   0.161E-11 -.146E-11 -.206E+04   0.247E-24 0.117E-24 -.679E+01
   0.897E-12 0.370E-11 0.207E+04   -.150E-11 0.149E-11 -.206E+04   0.103E-24 -.296E-25 -.679E+01
   0.327E-12 0.125E-11 0.685E+03   -.137E-11 -.149E-10 -.686E+03   0.164E-24 0.115E-24 0.435E+00
   0.831E-12 0.721E-12 0.685E+03   0.152E-11 0.149E-10 -.686E+03   0.120E-23 -.700E-24 0.435E+00
   0.314E-12 0.768E-12 -.690E+03   0.134E-10 0.267E-13 0.691E+03   0.188E-23 0.212E-23 -.245E+00
   0.792E-12 0.801E-12 -.690E+03   -.133E-10 -.302E-13 0.691E+03   0.692E-23 0.218E-23 -.245E+00
   0.241E-12 0.197E-11 -.206E+04   -.355E-14 0.462E-13 0.205E+04   0.217E-22 -.211E-23 0.596E+01
   0.868E-12 -.101E-12 -.206E+04   -.479E-13 0.461E-13 0.205E+04   0.238E-22 0.463E-24 0.596E+01
   0.127E-11 0.370E-12 0.207E+04   -.287E-11 0.187E-13 -.206E+04   0.185E-26 -.471E-25 -.679E+01
   -.689E-13 0.862E-12 0.207E+04   0.299E-11 -.169E-13 -.206E+04   -.740E-24 0.992E-25 -.679E+01
   0.122E-11 -.106E-11 0.685E+03   0.164E-10 0.107E-13 -.686E+03   0.956E-24 -.103E-23 0.435E+00
   -.656E-13 -.114E-12 0.685E+03   -.165E-10 -.739E-13 -.686E+03   0.217E-23 0.533E-24 0.435E+00
   0.119E-11 -.279E-12 -.690E+03   0.462E-13 0.134E-10 0.691E+03   0.507E-23 0.284E-23 -.245E+00
   -.748E-13 -.168E-13 -.690E+03   0.428E-15 -.135E-10 0.691E+03   -.101E-22 0.845E-23 -.245E+00
   0.123E-11 0.337E-12 -.206E+04   0.497E-13 0.355E-13 0.205E+04   0.672E-23 -.718E-24 0.596E+01
   -.703E-13 -.404E-13 -.206E+04   -.528E-13 -.413E-15 0.205E+04   -.403E-24 0.343E-25 0.596E+01
   0.126E-11 0.136E-11 0.207E+04   -.150E-11 -.150E-11 -.206E+04   -.226E-24 0.936E-25 -.679E+01
   -.738E-13 0.163E-11 0.207E+04   0.155E-11 0.149E-11 -.206E+04   -.290E-24 -.135E-24 -.679E+01
   0.122E-11 0.404E-11 0.685E+03   0.150E-10 -.149E-10 -.686E+03   -.349E-24 0.150E-23 0.435E+00
   -.725E-13 0.616E-12 0.685E+03   -.149E-10 0.149E-10 -.686E+03   -.536E-24 -.692E-24 0.435E+00
   0.118E-11 -.120E-11 -.690E+03   0.000E+00 -.284E-13 0.691E+03   0.750E-23 0.133E-23 -.245E+00
   -.729E-13 0.633E-12 -.690E+03   -.571E-13 -.568E-13 0.691E+03   -.179E-23 0.366E-23 -.245E+00
   0.124E-11 0.220E-11 -.206E+04   0.107E-13 -.107E-13 0.205E+04   -.318E-23 -.145E-23 0.596E+01
   -.818E-13 0.734E-12 -.206E+04   -.287E-13 0.249E-13 0.205E+04   0.694E-23 -.420E-23 0.596E+01
   0.850E-13 0.909E-13 0.513E+03   -.338E-13 0.797E-14 -.513E+03   -.162E-23 0.107E-23 -.758E-01
   0.276E-12 -.322E-11 0.513E+03   -.405E-13 -.888E-15 -.513E+03   -.216E-23 -.356E-23 -.758E-01
   0.369E-13 0.175E-12 0.155E+04   -.351E-13 0.351E-13 -.156E+04   0.272E-24 -.126E-24 0.360E+01
   0.333E-12 -.128E-12 0.155E+04   -.171E-13 -.272E-13 -.156E+04   -.235E-23 -.409E-25 0.360E+01
   0.354E-13 0.741E-13 -.156E+04   0.615E-12 0.565E-12 0.157E+04   -.230E-23 -.586E-24 -.493E+01
   0.340E-12 0.337E-12 -.156E+04   -.544E-12 -.618E-12 0.157E+04   0.281E-23 0.367E-23 -.493E+01
   0.113E-12 0.650E-12 -.512E+03   0.000E+00 0.142E-13 0.512E+03   0.192E-23 -.168E-23 0.279E+00
   0.274E-12 -.249E-12 -.512E+03   -.224E-13 0.139E-13 0.512E+03   -.277E-23 -.182E-23 0.279E+00
   0.869E-13 0.680E-12 0.513E+03   -.909E-12 0.823E-12 -.513E+03   -.254E-23 0.724E-24 -.758E-01
   0.264E-12 0.267E-11 0.513E+03   0.753E-12 -.824E-12 -.513E+03   -.540E-23 0.825E-24 -.758E-01
   0.324E-13 0.808E-12 0.155E+04   0.111E-12 0.229E-12 -.156E+04   -.106E-23 -.177E-23 0.360E+01
   0.333E-12 0.431E-12 0.155E+04   -.177E-12 -.228E-12 -.156E+04   -.183E-23 -.980E-24 0.360E+01
   0.329E-13 0.117E-11 -.156E+04   0.135E-11 -.410E-13 0.157E+04   0.147E-22 -.788E-23 -.493E+01
   0.338E-12 0.139E-11 -.156E+04   -.131E-11 -.302E-13 0.157E+04   0.488E-23 0.776E-24 -.493E+01
   0.108E-12 0.150E-11 -.512E+03   -.213E-13 0.639E-13 0.512E+03   -.563E-24 -.429E-23 0.279E+00
   0.285E-12 -.202E-13 -.512E+03   -.352E-13 0.285E-13 0.512E+03   0.353E-24 -.684E-23 0.279E+00
   0.476E-12 0.977E-13 0.513E+03   0.161E-11 -.621E-14 -.513E+03   -.508E-23 0.195E-23 -.758E-01
   -.826E-13 0.178E-12 0.513E+03   -.168E-11 0.000E+00 -.513E+03   -.134E-22 0.104E-23 -.758E-01
   0.481E-12 0.673E-13 0.155E+04   -.378E-12 0.231E-13 -.156E+04   0.106E-23 -.385E-24 0.360E+01
   -.928E-13 -.135E-12 0.155E+04   0.300E-12 -.308E-13 -.156E+04   0.167E-23 0.131E-23 0.360E+01
   0.492E-12 0.673E-13 -.156E+04   -.665E-12 0.567E-12 0.157E+04   -.637E-23 -.202E-23 -.493E+01
   -.511E-13 0.370E-12 -.156E+04   0.680E-12 -.639E-12 0.157E+04   -.355E-23 -.272E-23 -.493E+01
   0.475E-12 0.224E-11 -.512E+03   0.711E-14 0.213E-13 0.512E+03   -.755E-24 0.198E-23 0.279E+00
   -.546E-13 -.259E-12 -.512E+03   -.565E-13 0.589E-14 0.512E+03   -.422E-24 -.647E-23 0.279E+00
   0.471E-12 -.190E-11 0.513E+03   0.810E-12 0.824E-12 -.513E+03   0.104E-23 0.507E-24 -.758E-01
   -.741E-13 0.535E-12 0.513E+03   -.882E-12 -.831E-12 -.513E+03   -.673E-23 -.691E-24 -.758E-01
   0.472E-12 0.875E-13 0.155E+04   -.218E-12 0.212E-12 -.156E+04   -.119E-23 0.144E-24 0.360E+01
   -.922E-13 0.269E-12 0.155E+04   0.212E-12 -.232E-12 -.156E+04   0.524E-24 0.151E-23 0.360E+01
   0.486E-12 0.727E-12 -.156E+04   -.355E-13 -.569E-13 0.157E+04   -.398E-23 -.354E-23 -.493E+01
   -.413E-13 0.236E-12 -.156E+04   0.215E-13 -.355E-13 0.157E+04   0.778E-23 0.467E-24 -.493E+01
   0.475E-12 0.399E-11 -.512E+03   -.142E-13 0.355E-13 0.512E+03   -.742E-24 0.886E-25 0.279E+00
   -.691E-13 -.189E-12 -.512E+03   -.144E-13 0.283E-13 0.512E+03   0.262E-23 -.601E-23 0.279E+00
 -----------------------------------------------------------------------------------------------
   0.250E-10 0.329E-10 0.141E+02   0.148E-12 -.491E-13 0.205E-11   0.960E-22 -.180E-22 -.141E+02
 
 
 POSITION                                       TOTAL-FORCE (eV/Angst)
 -----------------------------------------------------------------------------------
      2.11015      0.00000      7.50000        -0.000000      0.000000      0.319634
      4.22029      2.11015      7.50000         0.000000     -0.000000      0.319634
      2.11015      2.11015      9.61015        -0.000000      0.000000      0.028237
      4.22029      0.00000      9.61015        -0.000000      0.000000      0.028237
      2.11015     -0.00000     11.73070         0.000000     -0.000000     -0.000765
      4.22029      2.11015     11.73070         0.000000      0.000000     -0.000765
      2.11015      2.11015     13.82914         0.000000     -0.000000     -0.000537
      4.22029     -0.00000     13.82914         0.000000     -0.000000     -0.000537
      2.11015      4.22029      7.50000         0.000000     -0.000000      0.319634
      4.22029      6.33044      7.50000         0.000000     -0.000000      0.319634
      2.11015      6.33044      9.61015        -0.000000      0.000000      0.028237
      4.22029      4.22029      9.61015        -0.000000      0.000000      0.028237
      2.11015      4.22029     11.73070         0.000000     -0.000000     -0.000765
      4.22029      6.33044     11.73070        -0.000000     -0.000000     -0.000765
      2.11015      6.33044     13.82914         0.000000     -0.000000     -0.000537
      4.22029      4.22029     13.82914         0.000000      0.000000     -0.000537
      6.33044      0.00000      7.50000         0.000000      0.000000      0.319634
      0.00000      2.11015      7.50000         0.000000      0.000000      0.319634
      6.33044      2.11015      9.61015        -0.000000      0.000000      0.028237
      0.00000      0.00000      9.61015        -0.000000     -0.000000      0.028237
      6.33044      0.00000     11.73070        -0.000000      0.000000     -0.000765
      0.00000      2.11015     11.73070        -0.000000      0.000000     -0.000765
      6.33044      2.11015     13.82914        -0.000000     -0.000000     -0.000537
      0.00000      0.00000     13.82914         0.000000      0.000000     -0.000537
      6.33044      4.22029      7.50000        -0.000000      0.000000      0.319634
      0.00000      6.33044      7.50000         0.000000     -0.000000      0.319634
      6.33044      6.33044      9.61015        -0.000000      0.000000      0.028237
      0.00000      4.22029      9.61015         0.000000     -0.000000      0.028237
      6.33044      4.22029     11.73070         0.000000      0.000000     -0.000765
      0.00000      6.33044     11.73070        -0.000000     -0.000000     -0.000765
      6.33044      6.33044     13.82914        -0.000000      0.000000     -0.000537
      0.00000      4.22029     13.82914         0.000000     -0.000000     -0.000537
      2.11015      0.00000      9.61015         0.000000     -0.000000      0.052999
      4.22029      2.11015      9.61015         0.000000      0.000000      0.052999
      2.11015      2.11015      7.50000         0.000000      0.000000     -0.402302
      4.22029      0.00000      7.50000         0.000000     -0.000000     -0.402302
      2.11015     -0.00000     13.86828         0.000000     -0.000000     -0.003183
      4.22029      2.11015     13.86828         0.000000     -0.000000     -0.003183
      2.11015      2.11015     11.72446        -0.000000      0.000000      0.005915
      4.22029     -0.00000     11.72446         0.000000      0.000000      0.005915
      2.11015      4.22029      9.61015         0.000000     -0.000000      0.052999
      4.22029      6.33044      9.61015         0.000000     -0.000000      0.052999
      2.11015      6.33044      7.50000         0.000000     -0.000000     -0.402302
      4.22029      4.22029      7.50000         0.000000     -0.000000     -0.402302
      2.11015      4.22029     13.86828         0.000000      0.000000     -0.003183
      4.22029      6.33044     13.86828         0.000000      0.000000     -0.003183
      2.11015      6.33044     11.72446        -0.000000     -0.000000      0.005915
      4.22029      4.22029     11.72446        -0.000000      0.000000      0.005915
      6.33044      0.00000      9.61015         0.000000      0.000000      0.052999
      0.00000      2.11015      9.61015         0.000000      0.000000      0.052999
      6.33044      2.11015      7.50000         0.000000     -0.000000     -0.402302
      0.00000      0.00000      7.50000         0.000000     -0.000000     -0.402302
      6.33044     -0.00000     13.86828         0.000000      0.000000     -0.003183
     -0.00000      2.11015     13.86828         0.000000      0.000000     -0.003183
      6.33044      2.11015     11.72446        -0.000000     -0.000000      0.005915
     -0.00000     -0.00000     11.72446        -0.000000     -0.000000      0.005915
      6.33044      4.22029      9.61015         0.000000     -0.000000      0.052999
      0.00000      6.33044      9.61015         0.000000     -0.000000      0.052999
      6.33044      6.33044      7.50000         0.000000     -0.000000     -0.402302
      0.00000      4.22029      7.50000         0.000000     -0.000000     -0.402302
      6.33044      4.22029     13.86828         0.000000     -0.000000     -0.003183
     -0.00000      6.33044     13.86828         0.000000     -0.000000     -0.003183
      6.33044      6.33044     11.72446        -0.000000      0.000000      0.005915
     -0.00000      4.22029     11.72446        -0.000000      0.000000      0.005915
 -----------------------------------------------------------------------------------
    total drift:                                0.000000      0.000000     -0.005563


--------------------------------------------------------------------------------------------------------



  FREE ENERGIE OF THE ION-ELECTRON SYSTEM (eV)
  ---------------------------------------------------
  free  energy   TOTEN  =      -264.83597459 eV

  energy  without entropy=     -264.83597459  energy(sigma->0) =     -264.83597459
 
 d Force = 0.8739094E-04[ 0.212E-04, 0.154E-03]  d Energy = 0.9094732E-04-0.356E-05
 d Force = 0.3287669E+02[ 0.329E+02, 0.329E+02]  d Ewald  = 0.3287669E+02 0.194E-06


--------------------------------------------------------------------------------------------------------


    POTLOK:  cpu time      0.2193: real time      0.2200


--------------------------------------------------------------------------------------------------------




--------------------------------------------------------------------------------------------------------


  
 reached required accuracy - stopping structural energy minimisation
     LOOP+:  cpu time     17.5795: real time     17.7073
    4ORBIT:  cpu time      0.0000: real time      0.0000

 total amount of memory used by VASP MPI-rank0    53938. kBytes
=======================================================================

   base      :      30000. kBytes
   nonl-proj :      10520. kBytes
   fftplans  :       2371. kBytes
   grid      :       3498. kBytes
   one-center:         64. kBytes
   wavefun   :       7485. kBytes
 
  
  
 General timing and accounting informations for this job:
 ========================================================
  
                  Total CPU time used (sec):      212.501
                            User time (sec):      210.242
                          System time (sec):        2.259
                         Elapsed time (sec):      215.153
  
                   Maximum memory used (kb):      378164.
                   Average memory used (kb):          N/A
  
                          Minor page faults:       377089
                          Major page faults:          242
                 Voluntary context switches:         4398
