 vasp.6.3.0 20Jan22 (build Apr  1 2022 16:44:48) complex                         
 executed on        HPECrayEX_GCC date 2022.09.30  22:14:11
 running  512 mpi-ranks, with    1 threads/rank
 distrk:  each k-point on  256 cores,    2 groups
 distr:  one band on NCORE=   4 cores,   64 groups


--------------------------------------------------------------------------------------------------------


 INCAR:
   SYSTEM = MgO-rocksalt
   ISMEAR = 0
   SIGMA = 0.05
   EDIFF = 1E-5
   ALGO = ALL
   ISTART = 0
   IBRION = -1
   NSW = 0
   ISYM = 2
   ISIF = 2
   DIPOL = 0.5 0.5 0.5
   IDIPOL = 3
   LDIPOL = .TRUE.
   GGA = RE
   IVDW = 13
   VDW_S8 = 1.7468
   VDW_A1 = 0.5363
   VDW_A2 = 3.0726
   ENCUT = 600
   PREC = Normal
   LASPH = .TRUE.
   LREAL = .FALSE.
   ISPIN = 1
   NELM = 200
   NELMIN = 8
   NCORE = 4
   KPAR = 2
   LWAVE = .FALSE.
   LCHARG = .FALSE.

 POTCAR:    PAW_PBE C 08Apr2002                   
 POTCAR:    PAW_PBE O 08Apr2002                   
 POTCAR:    PAW_PBE C 08Apr2002                   
   SHA256 =  253f7b50bb8d59471dbedb8285d89021f4a42ed1a2c5d38a03a736e69125dd95 C/POTCAR              
   COPYR  = (c) Copyright 08Apr2002 Georg Kresse                                                    
   COPYR  = This file is part of the software VASP. Any use, copying, and all other rights are regul
   COPYR  = If you do not have a valid VASP license, you may not use, copy or distribute this file. 
   VRHFIN =C: s2p2                                                                                  
   LEXCH  = PE                                                                                      
   EATOM  =   147.1560 eV,   10.8157 Ry                                                             
                                                                                                    
   TITEL  = PAW_PBE C 08Apr2002                                                                     
   LULTRA =        F    use ultrasoft PP ?                                                          
   IUNSCR =        1    unscreen: 0-lin 1-nonlin 2-no                                               
   RPACOR =    1.200    partial core radius                                                         
   POMASS =   12.011; ZVAL   =    4.000    mass and valenz                                          
   RCORE  =    1.500    outmost cutoff radius                                                       
   RWIGS  =    1.630; RWIGS  =    0.863    wigner-seitz radius (au A)                               
   ENMAX  =  400.000; ENMIN  =  300.000 eV                                                          
   ICORE  =        2    local potential                                                             
   LCOR   =        T    correct aug charges                                                         
   LPAW   =        T    paw PP                                                                      
   EAUG   =  644.873                                                                                
   DEXC   =    0.000                                                                                
   RMAX   =    1.529    core radius for proj-oper                                                   
   RAUG   =    1.300    factor for augmentation sphere                                              
   RDEP   =    1.501    radius for radial grids                                                     
   RDEPT  =    1.300    core radius for aug-charge                                                  
                                                                                                    
   Atomic configuration                                                                             
    4 entries                                                                                       
     n  l   j            E        occ.                                                              
     1  0  0.50      -273.3789   2.0000                                                             
     2  0  0.50       -13.7508   2.0000                                                             
     2  1  0.50        -5.2854   2.0000                                                             
     3  2  1.50        -5.4423   0.0000                                                             
   Description                                                                                      
     l       E           TYP  RCUT    TYP  RCUT                                                     
     0    -13.7508458     23  1.200                                                                 
     0     -8.2022199     23  1.200                                                                 
     1     -5.2854383     23  1.500                                                                 
     1     34.0145650     23  1.500                                                                 
     2     -5.4423304      7  1.500                                                                 
  local pseudopotential read in
  partial core-charges read in
  partial kinetic energy density read in
  atomic valenz-charges read in
  non local Contribution for L=           0  read in
    real space projection operators read in
  non local Contribution for L=           0  read in
    real space projection operators read in
  non local Contribution for L=           1  read in
    real space projection operators read in
  non local Contribution for L=           1  read in
    real space projection operators read in
    PAW grid and wavefunctions read in

   number of l-projection  operators is LMAX  =           4
   number of lm-projection operators is LMMAX =           8

 POTCAR:    PAW_PBE O 08Apr2002                   
   SHA256 =  818f92134a0a090dccd8ba1447fa70422a3b330e708bb4f08108d8ae51209ddf O/POTCAR              
   COPYR  = (c) Copyright 08Apr2002 Georg Kresse                                                    
   COPYR  = This file is part of the software VASP. Any use, copying, and all other rights are regul
   COPYR  = If you do not have a valid VASP license, you may not use, copy or distribute this file. 
   VRHFIN =O: s2p4                                                                                  
   LEXCH  = PE                                                                                      
   EATOM  =   432.3788 eV,   31.7789 Ry                                                             
                                                                                                    
   TITEL  = PAW_PBE O 08Apr2002                                                                     
   LULTRA =        F    use ultrasoft PP ?                                                          
   IUNSCR =        1    unscreen: 0-lin 1-nonlin 2-no                                               
   RPACOR =    1.200    partial core radius                                                         
   POMASS =   16.000; ZVAL   =    6.000    mass and valenz                                          
   RCORE  =    1.520    outmost cutoff radius                                                       
   RWIGS  =    1.550; RWIGS  =    0.820    wigner-seitz radius (au A)                               
   ENMAX  =  400.000; ENMIN  =  300.000 eV                                                          
   ICORE  =        2    local potential                                                             
   LCOR   =        T    correct aug charges                                                         
   LPAW   =        T    paw PP                                                                      
   EAUG   =  605.392                                                                                
   DEXC   =    0.000                                                                                
   RMAX   =    1.553    core radius for proj-oper                                                   
   RAUG   =    1.300    factor for augmentation sphere                                              
   RDEP   =    1.550    radius for radial grids                                                     
   RDEPT  =    1.329    core radius for aug-charge                                                  
                                                                                                    
   Atomic configuration                                                                             
    4 entries                                                                                       
     n  l   j            E        occ.                                                              
     1  0  0.50      -514.6923   2.0000                                                             
     2  0  0.50       -23.9615   2.0000                                                             
     2  1  0.50        -9.0305   4.0000                                                             
     3  2  1.50        -9.5241   0.0000                                                             
   Description                                                                                      
     l       E           TYP  RCUT    TYP  RCUT                                                     
     0    -23.9615318     23  1.200                                                                 
     0     -9.5240782     23  1.200                                                                 
     1     -9.0304911     23  1.520                                                                 
     1      8.1634956     23  1.520                                                                 
     2     -9.5240782      7  1.500                                                                 
  local pseudopotential read in
  partial core-charges read in
  partial kinetic energy density read in
  kinetic energy density of atom read in
  atomic valenz-charges read in
  non local Contribution for L=           0  read in
    real space projection operators read in
  non local Contribution for L=           0  read in
    real space projection operators read in
  non local Contribution for L=           1  read in
    real space projection operators read in
  non local Contribution for L=           1  read in
    real space projection operators read in
    PAW grid and wavefunctions read in

   number of l-projection  operators is LMAX  =           4
   number of lm-projection operators is LMMAX =           8

 -----------------------------------------------------------------------------
|                                                                             |
|               ----> ADVICE to this user running VASP <----                  |
|                                                                             |
|     You enforced a specific xc type in the INCAR file but a different       |
|     type was found in the POTCAR file.                                      |
|     I HOPE YOU KNOW WHAT YOU ARE DOING!                                     |
|                                                                             |
 -----------------------------------------------------------------------------

  PAW_PBE C 08Apr2002                   :
 energy of atom  1       EATOM= -147.1560
 kinetic energy error for atom=    0.0057 (will be added to EATOM!!)
  PAW_PBE O 08Apr2002                   :
 energy of atom  2       EATOM= -432.3788
 kinetic energy error for atom=    0.0168 (will be added to EATOM!!)


 POSCAR:  C  O
  positions in direct lattice
  No initial velocities read in
 -----------------------------------------------------------------------------
|                                                                             |
|           W    W    AA    RRRRR   N    N  II  N    N   GGGG   !!!           |
|           W    W   A  A   R    R  NN   N  II  NN   N  G    G  !!!           |
|           W    W  A    A  R    R  N N  N  II  N N  N  G       !!!           |
|           W WW W  AAAAAA  RRRRR   N  N N  II  N  N N  G  GGG   !            |
|           WW  WW  A    A  R   R   N   NN  II  N   NN  G    G                |
|           W    W  A    A  R    R  N    N  II  N    N   GGGG   !!!           |
|                                                                             |
|     Specifying the vdW parameters                                           |
|     VDW_S8 = 1.747                                                          |
|     VDW_A1 = 0.536                                                          |
|     VDW_A2 = 3.073                                                          |
|     in the INCAR file will overwrite the defaults for revpbe. Please        |
|     make sure that is what you intended.                                    |
|                                                                             |
 -----------------------------------------------------------------------------

 exchange correlation table for  LEXCH =       40
   RHO(1)=    0.500       N(1)  =     2000
   RHO(2)=  100.500       N(2)  =     4000



--------------------------------------------------------------------------------------------------------


 ion  position               nearest neighbor table
   1  0.500  0.500  0.765-   2 1.15
   2  0.500  0.500  0.819-   1 1.15

  LATTYP: Found a simple tetragonal cell.
 ALAT       =     8.4409846542
 C/A-ratio  =     2.5270438657
  
  Lattice vectors:
  
 A1 = (   8.4409846542,   0.0000000000,   0.0000000000)
 A2 = (   0.0000000000,   8.4409846542,   0.0000000000)
 A3 = (   0.0000000000,   0.0000000000,  21.3307384906)


Analysis of symmetry for initial positions (statically):
=====================================================================
 Subroutine PRICEL returns:
 Original cell was already a primitive cell.
 

 Routine SETGRP: Setting up the symmetry group for a 
 simple tetragonal supercell.


 Subroutine GETGRP returns: Found  8 space group operations
 (whereof  8 operations were pure point group operations)
 out of a pool of 16 trial point group operations.


The static configuration has the point symmetry C_4v.


Analysis of symmetry for dynamics (positions and initial velocities):
=====================================================================
 Subroutine PRICEL returns:
 Original cell was already a primitive cell.
 

 Routine SETGRP: Setting up the symmetry group for a 
 simple tetragonal supercell.


 Subroutine GETGRP returns: Found  8 space group operations
 (whereof  8 operations were pure point group operations)
 out of a pool of 16 trial point group operations.


The dynamic configuration has the point symmetry C_4v.


 Subroutine INISYM returns: Found  8 space group operations
 (whereof  8 operations are pure point group operations),
 and found     1 'primitive' translations


----------------------------------------------------------------------------------------

                                     Primitive cell                                     

  volume of cell :    1519.8199

  direct lattice vectors                    reciprocal lattice vectors
     8.440984654  0.000000000  0.000000000     0.118469591  0.000000000  0.000000000
     0.000000000  8.440984654  0.000000000     0.000000000  0.118469591  0.000000000
     0.000000000  0.000000000 21.330738491     0.000000000  0.000000000  0.046880702

  length of vectors
     8.440984654  8.440984654 21.330738491     0.118469591  0.118469591  0.046880702

  position of ions in fractional coordinates (direct lattice)
     0.500000000  0.500000000  0.765053803
     0.500000000  0.500000000  0.818817521

  ion indices of the primitive-cell ions
   primitive index   ion index
                 1           1
                 2           2

----------------------------------------------------------------------------------------



 KPOINTS: pymatgen v2020.8.13 with grid density = 

Automatic generation of k-mesh.
 Grid dimensions read from file:
 generate k-points for:    2    2    1

 Generating k-lattice:

  Cartesian coordinates                     Fractional coordinates (reciprocal lattice)
     0.059234796  0.000000000  0.000000000     0.500000000  0.000000000  0.000000000
     0.000000000  0.059234796  0.000000000     0.000000000  0.500000000  0.000000000
     0.000000000  0.000000000  0.046880702     0.000000000  0.000000000  1.000000000

  Length of vectors
     0.059234796  0.059234796  0.046880702

  Shift w.r.t. Gamma in fractional coordinates (k-lattice)
     0.000000000  0.000000000  0.000000000

 
 Subroutine IBZKPT returns following result:
 ===========================================
 
 Found      3 irreducible k-points:
 
 Following reciprocal coordinates:
            Coordinates               Weight
  0.000000  0.000000  0.000000      1.000000
  0.500000  0.000000  0.000000      2.000000
  0.500000  0.500000  0.000000      1.000000
 
 Following cartesian coordinates:
            Coordinates               Weight
  0.000000  0.000000  0.000000      1.000000
  0.059235  0.000000  0.000000      2.000000
  0.059235  0.059235  0.000000      1.000000
 


--------------------------------------------------------------------------------------------------------




 Dimension of arrays:
   k-points           NKPTS =      3   k-points in BZ     NKDIM =      3   number of bands    NBANDS=     64
   number of dos      NEDOS =    301   number of ions     NIONS =      2
   non local maximal  LDIM  =      4   non local SUM 2l+1 LMDIM =      8
   total plane-waves  NPLWV = 373248
   max r-space proj   IRMAX =      1   max aug-charges    IRDMAX=   3385
   dimension x,y,z NGX =    54 NGY =   54 NGZ =  128
   dimension x,y,z NGXF=   108 NGYF=  108 NGZF=  256
   support grid    NGXF=   108 NGYF=  108 NGZF=  256
   ions per type =               1   1
   NGX,Y,Z   is equivalent  to a cutoff of  10.64, 10.64,  9.98 a.u.
   NGXF,Y,Z  is equivalent  to a cutoff of  21.27, 21.27, 19.95 a.u.

 SYSTEM =  MgO-rocksalt                            
 POSCAR =   C  O                                   

 Startparameter for this run:
   NWRITE =      2    write-flag & timer
   PREC   = normal    normal or accurate (medium, high low for compatibility)
   ISTART =      0    job   : 0-new  1-cont  2-samecut
   ICHARG =      2    charge: 1-file 2-atom 10-const
   ISPIN  =      1    spin polarized calculation?
   LNONCOLLINEAR =      F non collinear calculations
   LSORBIT =      F    spin-orbit coupling
   INIWAV =      1    electr: 0-lowe 1-rand  2-diag
   LASPH  =      T    aspherical Exc in radial PAW
 Electronic Relaxation 1
   ENCUT  =  600.0 eV  44.10 Ry    6.64 a.u.  16.86 16.86 42.60*2*pi/ulx,y,z
   ENINI  =  600.0     initial cutoff
   ENAUG  =  644.9 eV  augmentation charge cutoff
   NELM   =    200;   NELMIN=  8; NELMDL= -5     # of ELM steps 
   EDIFF  = 0.1E-04   stopping-criterion for ELM
   LREAL  =      F    real-space projection
   NLSPLINE    = F    spline interpolate recip. space projectors
   LCOMPAT=      F    compatible to vasp.4.4
   GGA_COMPAT  = T    GGA compatible to vasp.4.4-vasp.4.6
   LMAXPAW     = -100 max onsite density
   LMAXMIX     =    2 max onsite mixed and CHGCAR
   VOSKOWN=      0    Vosko Wilk Nusair interpolation
   ROPT   =    0.00000   0.00000
 Ionic relaxation
   EDIFFG = 0.1E-03   stopping-criterion for IOM
   NSW    =      0    number of steps for IOM
   NBLOCK =      1;   KBLOCK =      1    inner block; outer block 
   IBRION =     -1    ionic relax: 0-MD 1-quasi-New 2-CG
   NFREE  =      0    steps in history (QN), initial steepest desc. (CG)
   ISIF   =      2    stress and relaxation
   IWAVPR =     10    prediction:  0-non 1-charg 2-wave 3-comb
   ISYM   =      2    0-nonsym 1-usesym 2-fastsym
   LCORR  =      T    Harris-Foulkes like correction to forces

   POTIM  = 0.5000    time-step for ionic-motion
   TEIN   =    0.0    initial temperature
   TEBEG  =    0.0;   TEEND  =   0.0 temperature during run
   SMASS  =  -3.00    Nose mass-parameter (am)
   estimated Nose-frequenzy (Omega)   =  0.10E-29 period in steps = 0.13E+47 mass=  -0.163E-26a.u.
   SCALEE = 1.0000    scale energy and forces
   NPACO  =    256;   APACO  = 10.0  distance and # of slots for P.C.
   PSTRESS=    0.0 pullay stress

  Mass of Ions in am
   POMASS =  12.01 16.00
  Ionic Valenz
   ZVAL   =   4.00  6.00
  Atomic Wigner-Seitz radii
   RWIGS  =  -1.00 -1.00
  virtual crystal weights 
   VCA    =   1.00  1.00
   NELECT =      10.0000    total number of electrons
   NUPDOWN=      -1.0000    fix difference up-down

 DOS related values:
   EMIN   =  10.00;   EMAX   =-10.00  energy-range for DOS
   EFERMI =   0.00
   ISMEAR =     0;   SIGMA  =   0.05  broadening in eV -4-tet -1-fermi 0-gaus

 Electronic relaxation 2 (details)
   IALGO  =     58    algorithm
   LDIAG  =      T    sub-space diagonalisation (order eigenvalues)
   LSUBROT=      F    optimize rotation matrix (better conditioning)
   TURBO    =      0    0=normal 1=particle mesh
   IRESTART =      0    0=no restart 2=restart with 2 vectors
   NREBOOT  =      0    no. of reboots
   NMIN     =      0    reboot dimension
   EREF     =   0.00    reference energy to select bands
   IMIX   =      4    mixing-type and parameters
     AMIX     =   0.40;   BMIX     =  1.00
     AMIX_MAG =   1.60;   BMIX_MAG =  1.00
     AMIN     =   0.10
     WC   =   100.;   INIMIX=   1;  MIXPRE=   1;  MAXMIX= -45

 Intra band minimization:
   WEIMIN = 0.0000     energy-eigenvalue tresh-hold
   EBREAK =  0.39E-07  absolut break condition
   DEPER  =   0.30     relativ break condition  

   TIME   =   0.40     timestep for ELM

  volume/ion in A,a.u.               =     759.91      5128.13
  Fermi-wavevector in a.u.,A,eV,Ry     =   0.306769  0.579708  1.280402  0.094107
  Thomas-Fermi vector in A             =   1.181026

 Write flags
   LWAVE        =      F    write WAVECAR
   LDOWNSAMPLE  =      F    k-point downsampling of WAVECAR
   LCHARG       =      F    write CHGCAR
   LVTOT        =      F    write LOCPOT, total local potential
   LVHAR        =      F    write LOCPOT, Hartree potential only
   LELF         =      F    write electronic localiz. function (ELF)
   LORBIT       =      0    0 simple, 1 ext, 2 COOP (PROOUT), +10 PAW based schemes


 Dipole corrections
   LMONO  =      F    monopole corrections only (constant potential shift)
   LDIPOL =      T    correct potential (dipole corrections)
   IDIPOL =      3    1-x, 2-y, 3-z, 4-all directions 
   EPSILON=  1.0000000 bulk dielectric constant

 Exchange correlation treatment:
   GGA     =    RE    GGA type
   LEXCH   =    40    internal setting for exchange type
   LIBXC   =     F    Libxc                    
   VOSKOWN =     0    Vosko Wilk Nusair interpolation
   LHFCALC =     F    Hartree Fock is set to
   LHFONE  =     F    Hartree Fock one center treatment
   AEXX    =    0.0000 exact exchange contribution

 Linear response parameters
   LEPSILON=     F    determine dielectric tensor
   LRPA    =     F    only Hartree local field effects (RPA)
   LNABLA  =     F    use nabla operator in PAW spheres
   LVEL    =     F    velocity operator in full k-point grid
   CSHIFT  =0.1000    complex shift for real part using Kramers Kronig
   OMEGAMAX=  -1.0    maximum frequency
   DEG_THRESHOLD= 0.2000000E-02 threshold for treating states as degnerate
   RTIME   =   -0.100 relaxation time in fs
  (WPLASMAI=    0.000 imaginary part of plasma frequency in eV, 0.658/RTIME)
   DFIELD  = 0.0000000 0.0000000 0.0000000 field for delta impulse in time

  Optional k-point grid parameters
   LKPOINTS_OPT  =     F    use optional k-point grid
   KPOINTS_OPT_MODE=     1    mode for optional k-point grid

 Orbital magnetization related:
   ORBITALMAG=     F  switch on orbital magnetization
   LCHIMAG   =     F  perturbation theory with respect to B field
   DQ        =  0.001000  dq finite difference perturbation B field
   LLRAUG    =     F  two centre corrections for induced B field



--------------------------------------------------------------------------------------------------------


 Static calculation
 charge density and potential will be updated during run
 non-spin polarized calculation
 Conjugate gradient for all bands (Freysoldt, et al. PRB 79, 241103 (2009))
 preconditioned conjugated gradient                                        
 perform sub-space diagonalisation
    before iterative eigenvector-optimisation
 modified Broyden-mixing scheme, WC =      100.0
 initial mixing is a Kerker type mixing with AMIX =  0.4000 and BMIX =      1.0000
 Hartree-type preconditioning will be used
 using additional bands           59
 reciprocal scheme for non local part
 use partial core corrections
 no Harris-corrections to forces 
 use gradient corrections 
 use of overlap-Matrix (Vanderbilt PP)
 Gauss-broadening in eV      SIGMA  =   0.05


--------------------------------------------------------------------------------------------------------


  energy-cutoff  :      600.00
  volume of cell :     1519.82
      direct lattice vectors                 reciprocal lattice vectors
     8.440984654  0.000000000  0.000000000     0.118469591  0.000000000  0.000000000
     0.000000000  8.440984654  0.000000000     0.000000000  0.118469591  0.000000000
     0.000000000  0.000000000 21.330738491     0.000000000  0.000000000  0.046880702

  length of vectors
     8.440984654  8.440984654 21.330738491     0.118469591  0.118469591  0.046880702



 k-points in units of 2pi/SCALE and weight: pymatgen v2020.8.13 with grid density = 
   0.00000000  0.00000000  0.00000000       0.250
   0.05923480  0.00000000  0.00000000       0.500
   0.05923480  0.05923480  0.00000000       0.250

 k-points in reciprocal lattice and weights: pymatgen v2020.8.13 with grid density = 
   0.00000000  0.00000000  0.00000000       0.250
   0.50000000  0.00000000  0.00000000       0.500
   0.50000000  0.50000000  0.00000000       0.250

 position of ions in fractional coordinates (direct lattice) 
   0.50000000  0.50000000  0.76505380
   0.50000000  0.50000000  0.81881752

 position of ions in cartesian coordinates  (Angst):
   4.22049233  4.22049233 16.31916259
   4.22049233  4.22049233 17.46598241



--------------------------------------------------------------------------------------------------------


 k-point   1 :   0.0000 0.0000 0.0000  plane waves:   50745
 k-point   2 :   0.5000 0.0000 0.0000  plane waves:   50798
 k-point   3 :   0.5000 0.5000 0.0000  plane waves:   50752

 maximum and minimum number of plane-waves per node :     12720    12632

 maximum number of plane-waves:     50798
 maximum index in each direction: 
   IXMAX=   16   IYMAX=   16   IZMAX=   42
   IXMIN=  -17   IYMIN=  -17   IZMIN=  -42


 parallel 3D FFT for wavefunctions:
    minimum data exchange during FFTs selected (reduces bandwidth)
 parallel 3D FFT for charge:
    minimum data exchange during FFTs selected (reduces bandwidth)


 total amount of memory used by VASP MPI-rank0    46439. kBytes
=======================================================================

   base      :      30000. kBytes
   nonl-proj :       5298. kBytes
   fftplans  :       3857. kBytes
   grid      :       5439. kBytes
   one-center:          3. kBytes
   wavefun   :       1842. kBytes

     INWAV:  cpu time      0.0001: real time      0.0002
 Broyden mixing: mesh for mixing (old mesh)
   NGX = 33   NGY = 33   NGZ = 85
  (NGX  =108   NGY  =108   NGZ  =256)
  gives a total of  92565 points

 initial charge density was supplied:
 charge density of overlapping atoms calculated
 number of electron      10.0000000 magnetization 
 keeping initial charge density in first step


--------------------------------------------------------------------------------------------------------


 Maximum index for augmentation-charges            0 (set IRDMAX)


--------------------------------------------------------------------------------------------------------


 First call to EWALD:  gamma=   0.154
 Maximum number of real-space cells 4x 4x 2
 Maximum number of reciprocal cells 2x 2x 5

    FEWALD:  cpu time      0.0039: real time      0.0039


--------------------------------------- Iteration      1(   1)  ---------------------------------------


    POTLOK:  cpu time      0.0345: real time      0.0348
    SETDIJ:  cpu time      0.0472: real time      0.0473
    TRIAL :  cpu time      0.1808: real time      0.1811
    CORREC:  cpu time      0.0004: real time      0.0006
    --------------------------------------------
      LOOP:  cpu time      0.2637: real time      0.2649

 eigenvalue-minimisations  :   384
 total energy-change (2. order) : 0.7729812E+02  (-0.3370075E+03)
 number of electron      10.0000000 magnetization 
 augmentation part       10.0000000 magnetization 

 DIPCOR: dipole corrections for dipol
 direction  3 min pos     1,
 dipolmoment           0.000000      0.000000     -0.000258 electrons x Angstroem
 Tr[quadrupol]      -355.254708

 energy correction for charged system         0.000000 eV
 dipol+quadrupol energy correction           -0.000000 eV
 added-field ion interaction          0.001946 eV  (added to PSCEN)


 Free energy of the ion-electron system (eV)
  ---------------------------------------------------
  alpha Z        PSCENC =         0.28945210
  Ewald energy   TEWEN  =       192.88447950
  -Hartree energ DENC   =      -654.07813843
  -exchange      EXHF   =         0.00000000
  -V(xc)+E(xc)   XCENC  =        38.80223550
  PAW double counting   =       455.56453932     -457.22430280
  entropy T*S    EENTRO =        -0.00000000
  eigenvalues    EBANDS =       -78.07450924
  atomic energy  EATOM  =       579.13436270
  ---------------------------------------------------
  free energy    TOTEN  =        77.29811863 eV

  energy without entropy =       77.29811863  energy(sigma->0) =       77.29811863


--------------------------------------------------------------------------------------------------------




--------------------------------------- Iteration      1(   2)  ---------------------------------------


    TRIAL :  cpu time      0.5154: real time      0.5156
    CORREC:  cpu time      0.0002: real time      0.0002
    --------------------------------------------
      LOOP:  cpu time      0.5203: real time      0.5285

 eigenvalue-minimisations  :   704
 total energy-change (2. order) :-0.9194314E+02  (-0.9194314E+02)
 number of electron      10.0000000 magnetization 
 augmentation part       10.0000000 magnetization 

 DIPCOR: dipole corrections for dipol
 direction  3 min pos     1,
 dipolmoment           0.000000      0.000000     -0.000258 electrons x Angstroem
 Tr[quadrupol]      -355.254708

 energy correction for charged system         0.000000 eV
 dipol+quadrupol energy correction           -0.000000 eV
 added-field ion interaction          0.001946 eV  (added to PSCEN)


 Free energy of the ion-electron system (eV)
  ---------------------------------------------------
  alpha Z        PSCENC =         0.28945210
  Ewald energy   TEWEN  =       192.88447950
  -Hartree energ DENC   =      -654.07813843
  -exchange      EXHF   =         0.00000000
  -V(xc)+E(xc)   XCENC  =        38.80223550
  PAW double counting   =       455.56453932     -457.22430280
  entropy T*S    EENTRO =        -0.00000000
  eigenvalues    EBANDS =      -170.01764466
  atomic energy  EATOM  =       579.13436270
  ---------------------------------------------------
  free energy    TOTEN  =       -14.64501679 eV

  energy without entropy =      -14.64501679  energy(sigma->0) =      -14.64501679


--------------------------------------------------------------------------------------------------------




--------------------------------------- Iteration      1(   3)  ---------------------------------------


    TRIAL :  cpu time      0.1620: real time      0.1620
    CORREC:  cpu time      0.0005: real time      0.0005
    --------------------------------------------
      LOOP:  cpu time      0.1667: real time      0.1752

 eigenvalue-minimisations  :   384
 total energy-change (2. order) :-0.6370191E+00  (-0.6370191E+00)
 number of electron      10.0000000 magnetization 
 augmentation part       10.0000000 magnetization 

 DIPCOR: dipole corrections for dipol
 direction  3 min pos     1,
 dipolmoment           0.000000      0.000000     -0.000258 electrons x Angstroem
 Tr[quadrupol]      -355.254708

 energy correction for charged system         0.000000 eV
 dipol+quadrupol energy correction           -0.000000 eV
 added-field ion interaction          0.001946 eV  (added to PSCEN)


 Free energy of the ion-electron system (eV)
  ---------------------------------------------------
  alpha Z        PSCENC =         0.28945210
  Ewald energy   TEWEN  =       192.88447950
  -Hartree energ DENC   =      -654.07813843
  -exchange      EXHF   =         0.00000000
  -V(xc)+E(xc)   XCENC  =        38.80223550
  PAW double counting   =       455.56453932     -457.22430280
  entropy T*S    EENTRO =        -0.00000000
  eigenvalues    EBANDS =      -170.65466380
  atomic energy  EATOM  =       579.13436270
  ---------------------------------------------------
  free energy    TOTEN  =       -15.28203593 eV

  energy without entropy =      -15.28203593  energy(sigma->0) =      -15.28203593


--------------------------------------------------------------------------------------------------------




--------------------------------------- Iteration      1(   4)  ---------------------------------------


    TRIAL :  cpu time      0.3891: real time      0.3892
    CORREC:  cpu time      0.0002: real time      0.0002
    --------------------------------------------
      LOOP:  cpu time      0.4011: real time      0.4016

 eigenvalue-minimisations  :   576
 total energy-change (2. order) :-0.2378057E-02  (-0.2378057E-02)
 number of electron      10.0000000 magnetization 
 augmentation part       10.0000000 magnetization 

 DIPCOR: dipole corrections for dipol
 direction  3 min pos     1,
 dipolmoment           0.000000      0.000000     -0.000258 electrons x Angstroem
 Tr[quadrupol]      -355.254708

 energy correction for charged system         0.000000 eV
 dipol+quadrupol energy correction           -0.000000 eV
 added-field ion interaction          0.001946 eV  (added to PSCEN)


 Free energy of the ion-electron system (eV)
  ---------------------------------------------------
  alpha Z        PSCENC =         0.28945210
  Ewald energy   TEWEN  =       192.88447950
  -Hartree energ DENC   =      -654.07813843
  -exchange      EXHF   =         0.00000000
  -V(xc)+E(xc)   XCENC  =        38.80223550
  PAW double counting   =       455.56453932     -457.22430280
  entropy T*S    EENTRO =        -0.00000000
  eigenvalues    EBANDS =      -170.65704186
  atomic energy  EATOM  =       579.13436270
  ---------------------------------------------------
  free energy    TOTEN  =       -15.28441399 eV

  energy without entropy =      -15.28441399  energy(sigma->0) =      -15.28441399


--------------------------------------------------------------------------------------------------------




--------------------------------------- Iteration      1(   5)  ---------------------------------------


    TRIAL :  cpu time      0.1566: real time      0.1566
    CORREC:  cpu time      0.0002: real time      0.0002
    CHARGE:  cpu time      0.0473: real time      0.0476
    --------------------------------------------
      LOOP:  cpu time      0.2164: real time      0.2169

 eigenvalue-minimisations  :   384
 total energy-change (2. order) :-0.1674864E-05  (-0.1674858E-05)
 number of electron      10.0000033 magnetization 
 augmentation part        0.7240557 magnetization 

 DIPCOR: dipole corrections for dipol
 direction  3 min pos     1,
 dipolmoment           0.000000      0.000000     -0.000258 electrons x Angstroem
 Tr[quadrupol]      -355.254708

 energy correction for charged system         0.000000 eV
 dipol+quadrupol energy correction           -0.000000 eV
 added-field ion interaction          0.001946 eV  (added to PSCEN)


 Free energy of the ion-electron system (eV)
  ---------------------------------------------------
  alpha Z        PSCENC =         0.28945210
  Ewald energy   TEWEN  =       192.88447950
  -Hartree energ DENC   =      -654.07813843
  -exchange      EXHF   =         0.00000000
  -V(xc)+E(xc)   XCENC  =        38.80223550
  PAW double counting   =       455.56453932     -457.22430280
  entropy T*S    EENTRO =        -0.00000000
  eigenvalues    EBANDS =      -170.65704354
  atomic energy  EATOM  =       579.13436270
  ---------------------------------------------------
  free energy    TOTEN  =       -15.28441566 eV

  energy without entropy =      -15.28441566  energy(sigma->0) =      -15.28441566


--------------------------------------------------------------------------------------------------------




--------------------------------------- Iteration      1(   6)  ---------------------------------------


    POTLOK:  cpu time      0.0261: real time      0.0261
    SETDIJ:  cpu time      0.0455: real time      0.0456
    TRIAL :  cpu time      3.0525: real time      3.0532
    CORREC:  cpu time      0.1386: real time      0.1387
    CHARGE:  cpu time      0.0336: real time      0.0336
    --------------------------------------------
      LOOP:  cpu time      3.3082: real time      3.3094

 eigenvalue-minimisations  :     0
 total energy-change (2. order) : 0.1747353E+01  (-0.7854993E+00)
 number of electron      10.0000030 magnetization 
 augmentation part        0.6721038 magnetization 

 DIPCOR: dipole corrections for dipol
 direction  3 min pos     1,
 dipolmoment           0.000000      0.000000      0.016595 electrons x Angstroem
 Tr[quadrupol]      -354.782778

 energy correction for charged system         0.000000 eV
 dipol+quadrupol energy correction           -0.000016 eV
 added-field ion interaction         -0.125305 eV  (added to PSCEN)


 Free energy of the ion-electron system (eV)
  ---------------------------------------------------
  alpha Z        PSCENC =        -0.80634730
  Ewald energy   TEWEN  =       192.88447950
  -Hartree energ DENC   =      -700.57363378
  -exchange      EXHF   =         0.00000000
  -V(xc)+E(xc)   XCENC  =        41.41207412
  PAW double counting   =       861.26747694     -863.27522136
  entropy T*S    EENTRO =        -0.00000000
  eigenvalues    EBANDS =      -123.58025387
  atomic energy  EATOM  =       579.13436270
  ---------------------------------------------------
  free energy    TOTEN  =       -13.53706306 eV

  energy without entropy =      -13.53706306  energy(sigma->0) =      -13.53706306


--------------------------------------------------------------------------------------------------------




--------------------------------------- Iteration      1(   7)  ---------------------------------------


    POTLOK:  cpu time      0.0213: real time      0.0213
    SETDIJ:  cpu time      0.0467: real time      0.0467
    TRIAL :  cpu time      0.0586: real time      0.0586
    CORREC:  cpu time      0.1376: real time      0.1376
    CHARGE:  cpu time      0.0322: real time      0.0322
    --------------------------------------------
      LOOP:  cpu time      0.3014: real time      0.3086

 eigenvalue-minimisations  :     0
 total energy-change (2. order) :-0.7893671E+00  (-0.1137439E+00)
 number of electron      10.0000030 magnetization 
 augmentation part        0.6542888 magnetization 

 DIPCOR: dipole corrections for dipol
 direction  3 min pos     1,
 dipolmoment           0.000000      0.000000      0.005153 electrons x Angstroem
 Tr[quadrupol]      -355.099934

 energy correction for charged system         0.000000 eV
 dipol+quadrupol energy correction           -0.000002 eV
 added-field ion interaction         -0.038906 eV  (added to PSCEN)


 Free energy of the ion-electron system (eV)
  ---------------------------------------------------
  alpha Z        PSCENC =        -0.09754058
  Ewald energy   TEWEN  =       192.88447950
  -Hartree energ DENC   =      -679.17959007
  -exchange      EXHF   =         0.00000000
  -V(xc)+E(xc)   XCENC  =        40.26091540
  PAW double counting   =       846.51396194     -848.33540519
  entropy T*S    EENTRO =        -0.00000000
  eigenvalues    EBANDS =      -145.50761384
  atomic energy  EATOM  =       579.13436270
  ---------------------------------------------------
  free energy    TOTEN  =       -14.32643015 eV

  energy without entropy =      -14.32643015  energy(sigma->0) =      -14.32643015


--------------------------------------------------------------------------------------------------------




--------------------------------------- Iteration      1(   8)  ---------------------------------------


    POTLOK:  cpu time      0.0212: real time      0.0212
    SETDIJ:  cpu time      0.0470: real time      0.0470
    TRIAL :  cpu time      0.0583: real time      0.0583
    CORREC:  cpu time      0.1367: real time      0.1367
    CHARGE:  cpu time      0.0326: real time      0.0326
    --------------------------------------------
      LOOP:  cpu time      0.3116: real time      0.3118

 eigenvalue-minimisations  :     0
 total energy-change (2. order) :-0.1136681E+00  (-0.4076902E-01)
 number of electron      10.0000029 magnetization 
 augmentation part        0.6512734 magnetization 

 DIPCOR: dipole corrections for dipol
 direction  3 min pos     1,
 dipolmoment           0.000000      0.000000     -0.031409 electrons x Angstroem
 Tr[quadrupol]      -355.576094

 energy correction for charged system         0.000000 eV
 dipol+quadrupol energy correction           -0.000059 eV
 added-field ion interaction          0.237167 eV  (added to PSCEN)


 Free energy of the ion-electron system (eV)
  ---------------------------------------------------
  alpha Z        PSCENC =         0.30801282
  Ewald energy   TEWEN  =       192.88447950
  -Hartree energ DENC   =      -677.10132725
  -exchange      EXHF   =         0.00000000
  -V(xc)+E(xc)   XCENC  =        40.14875179
  PAW double counting   =       851.73972037     -853.44981821
  entropy T*S    EENTRO =        -0.00000000
  eigenvalues    EBANDS =      -148.10428001
  atomic energy  EATOM  =       579.13436270
  ---------------------------------------------------
  free energy    TOTEN  =       -14.44009829 eV

  energy without entropy =      -14.44009829  energy(sigma->0) =      -14.44009829


--------------------------------------------------------------------------------------------------------




--------------------------------------- Iteration      1(   9)  ---------------------------------------


    POTLOK:  cpu time      0.0211: real time      0.0211
    SETDIJ:  cpu time      0.0466: real time      0.0466
    TRIAL :  cpu time      0.0574: real time      0.0576
    CORREC:  cpu time      0.1350: real time      0.1350
    CHARGE:  cpu time      0.0333: real time      0.0333
    --------------------------------------------
      LOOP:  cpu time      0.2986: real time      0.3059

 eigenvalue-minimisations  :     0
 total energy-change (2. order) :-0.4074350E-01  (-0.1644892E-01)
 number of electron      10.0000029 magnetization 
 augmentation part        0.6515078 magnetization 

 DIPCOR: dipole corrections for dipol
 direction  3 min pos     1,
 dipolmoment           0.000000      0.000000     -0.037908 electrons x Angstroem
 Tr[quadrupol]      -355.650741

 energy correction for charged system         0.000000 eV
 dipol+quadrupol energy correction           -0.000086 eV
 added-field ion interaction          0.286240 eV  (added to PSCEN)


 Free energy of the ion-electron system (eV)
  ---------------------------------------------------
  alpha Z        PSCENC =         0.54878218
  Ewald energy   TEWEN  =       192.88447950
  -Hartree energ DENC   =      -676.24624834
  -exchange      EXHF   =         0.00000000
  -V(xc)+E(xc)   XCENC  =        40.10483142
  PAW double counting   =       855.87618627     -857.56113176
  entropy T*S    EENTRO =        -0.00000000
  eigenvalues    EBANDS =      -149.22210376
  atomic energy  EATOM  =       579.13436270
  ---------------------------------------------------
  free energy    TOTEN  =       -14.48084179 eV

  energy without entropy =      -14.48084179  energy(sigma->0) =      -14.48084179


--------------------------------------------------------------------------------------------------------




--------------------------------------- Iteration      1(  10)  ---------------------------------------


    POTLOK:  cpu time      0.0217: real time      0.0217
    SETDIJ:  cpu time      0.0467: real time      0.0467
    TRIAL :  cpu time      0.0584: real time      0.0584
    CORREC:  cpu time      0.1369: real time      0.1369
    CHARGE:  cpu time      0.0329: real time      0.0329
    --------------------------------------------
      LOOP:  cpu time      0.3010: real time      0.3093

 eigenvalue-minimisations  :     0
 total energy-change (2. order) :-0.1640475E-01  (-0.6431736E-02)
 number of electron      10.0000029 magnetization 
 augmentation part        0.6515170 magnetization 

 DIPCOR: dipole corrections for dipol
 direction  3 min pos     1,
 dipolmoment           0.000000      0.000000     -0.035764 electrons x Angstroem
 Tr[quadrupol]      -355.610669

 energy correction for charged system         0.000000 eV
 dipol+quadrupol energy correction           -0.000076 eV
 added-field ion interaction          0.270051 eV  (added to PSCEN)


 Free energy of the ion-electron system (eV)
  ---------------------------------------------------
  alpha Z        PSCENC =         0.58764951
  Ewald energy   TEWEN  =       192.88447950
  -Hartree energ DENC   =      -675.44018876
  -exchange      EXHF   =         0.00000000
  -V(xc)+E(xc)   XCENC  =        40.06228747
  PAW double counting   =       857.07749518     -858.76112230
  entropy T*S    EENTRO =        -0.00000000
  eigenvalues    EBANDS =      -150.04220985
  atomic energy  EATOM  =       579.13436270
  ---------------------------------------------------
  free energy    TOTEN  =       -14.49724654 eV

  energy without entropy =      -14.49724654  energy(sigma->0) =      -14.49724654


--------------------------------------------------------------------------------------------------------




--------------------------------------- Iteration      1(  11)  ---------------------------------------


    POTLOK:  cpu time      0.0209: real time      0.0209
    SETDIJ:  cpu time      0.0470: real time      0.0470
    TRIAL :  cpu time      0.0567: real time      0.0567
    CORREC:  cpu time      0.1345: real time      0.1345
    CHARGE:  cpu time      0.0319: real time      0.0319
    --------------------------------------------
      LOOP:  cpu time      0.2950: real time      0.3034

 eigenvalue-minimisations  :     0
 total energy-change (2. order) :-0.6418584E-02  (-0.2058414E-02)
 number of electron      10.0000029 magnetization 
 augmentation part        0.6518024 magnetization 

 DIPCOR: dipole corrections for dipol
 direction  3 min pos     1,
 dipolmoment           0.000000      0.000000     -0.031485 electrons x Angstroem
 Tr[quadrupol]      -355.551330

 energy correction for charged system         0.000000 eV
 dipol+quadrupol energy correction           -0.000059 eV
 added-field ion interaction          0.237740 eV  (added to PSCEN)


 Free energy of the ion-electron system (eV)
  ---------------------------------------------------
  alpha Z        PSCENC =         0.54812467
  Ewald energy   TEWEN  =       192.88447950
  -Hartree energ DENC   =      -675.02267568
  -exchange      EXHF   =         0.00000000
  -V(xc)+E(xc)   XCENC  =        40.03858241
  PAW double counting   =       856.26156496     -857.94519935
  entropy T*S    EENTRO =        -0.00000000
  eigenvalues    EBANDS =      -150.40290432
  atomic energy  EATOM  =       579.13436270
  ---------------------------------------------------
  free energy    TOTEN  =       -14.50366513 eV

  energy without entropy =      -14.50366513  energy(sigma->0) =      -14.50366513


--------------------------------------------------------------------------------------------------------




--------------------------------------- Iteration      1(  12)  ---------------------------------------


    POTLOK:  cpu time      0.0216: real time      0.0216
    SETDIJ:  cpu time      0.0464: real time      0.0465
    TRIAL :  cpu time      0.0575: real time      0.0575
    CORREC:  cpu time      0.1353: real time      0.1354
    CHARGE:  cpu time      0.0332: real time      0.0332
    --------------------------------------------
      LOOP:  cpu time      0.2986: real time      0.3071

 eigenvalue-minimisations  :     0
 total energy-change (2. order) :-0.2057079E-02  (-0.5015047E-03)
 number of electron      10.0000029 magnetization 
 augmentation part        0.6519060 magnetization 

 DIPCOR: dipole corrections for dipol
 direction  3 min pos     1,
 dipolmoment           0.000000      0.000000     -0.029343 electrons x Angstroem
 Tr[quadrupol]      -355.522636

 energy correction for charged system         0.000000 eV
 dipol+quadrupol energy correction           -0.000051 eV
 added-field ion interaction          0.221564 eV  (added to PSCEN)


 Free energy of the ion-electron system (eV)
  ---------------------------------------------------
  alpha Z        PSCENC =         0.51785743
  Ewald energy   TEWEN  =       192.88447950
  -Hartree energ DENC   =      -674.81458555
  -exchange      EXHF   =         0.00000000
  -V(xc)+E(xc)   XCENC  =        40.02553163
  PAW double counting   =       854.91388783     -856.60126304
  entropy T*S    EENTRO =        -0.00000000
  eigenvalues    EBANDS =      -150.56599270
  atomic energy  EATOM  =       579.13436270
  ---------------------------------------------------
  free energy    TOTEN  =       -14.50572221 eV

  energy without entropy =      -14.50572221  energy(sigma->0) =      -14.50572221


--------------------------------------------------------------------------------------------------------




--------------------------------------- Iteration      1(  13)  ---------------------------------------


    POTLOK:  cpu time      0.0210: real time      0.0210
    SETDIJ:  cpu time      0.0466: real time      0.0466
    TRIAL :  cpu time      0.0568: real time      0.0568
    CORREC:  cpu time      0.1344: real time      0.1344
    CHARGE:  cpu time      0.0320: real time      0.0320
    --------------------------------------------
      LOOP:  cpu time      0.3028: real time      0.3030

 eigenvalue-minimisations  :     0
 total energy-change (2. order) :-0.5016375E-03  (-0.1184986E-03)
 number of electron      10.0000029 magnetization 
 augmentation part        0.6519308 magnetization 

 DIPCOR: dipole corrections for dipol
 direction  3 min pos     1,
 dipolmoment           0.000000      0.000000     -0.028525 electrons x Angstroem
 Tr[quadrupol]      -355.512134

 energy correction for charged system         0.000000 eV
 dipol+quadrupol energy correction           -0.000048 eV
 added-field ion interaction          0.215392 eV  (added to PSCEN)


 Free energy of the ion-electron system (eV)
  ---------------------------------------------------
  alpha Z        PSCENC =         0.50638682
  Ewald energy   TEWEN  =       192.88447950
  -Hartree energ DENC   =      -674.71854545
  -exchange      EXHF   =         0.00000000
  -V(xc)+E(xc)   XCENC  =        40.01941414
  PAW double counting   =       853.91681278     -855.60667602
  entropy T*S    EENTRO =        -0.00000000
  eigenvalues    EBANDS =      -150.64245831
  atomic energy  EATOM  =       579.13436270
  ---------------------------------------------------
  free energy    TOTEN  =       -14.50622384 eV

  energy without entropy =      -14.50622384  energy(sigma->0) =      -14.50622384


--------------------------------------------------------------------------------------------------------




--------------------------------------- Iteration      1(  14)  ---------------------------------------


    POTLOK:  cpu time      0.0216: real time      0.0216
    SETDIJ:  cpu time      0.0465: real time      0.0465
    TRIAL :  cpu time      0.0579: real time      0.0579
    CORREC:  cpu time      0.1353: real time      0.1353
    CHARGE:  cpu time      0.0326: real time      0.0326
    --------------------------------------------
      LOOP:  cpu time      0.2978: real time      0.3065

 eigenvalue-minimisations  :     0
 total energy-change (2. order) :-0.1185133E-03  (-0.2972033E-04)
 number of electron      10.0000029 magnetization 
 augmentation part        0.6519477 magnetization 

 DIPCOR: dipole corrections for dipol
 direction  3 min pos     1,
 dipolmoment           0.000000      0.000000     -0.028209 electrons x Angstroem
 Tr[quadrupol]      -355.508366

 energy correction for charged system         0.000000 eV
 dipol+quadrupol energy correction           -0.000047 eV
 added-field ion interaction          0.213003 eV  (added to PSCEN)


 Free energy of the ion-electron system (eV)
  ---------------------------------------------------
  alpha Z        PSCENC =         0.50161646
  Ewald energy   TEWEN  =       192.88447950
  -Hartree energ DENC   =      -674.71215051
  -exchange      EXHF   =         0.00000000
  -V(xc)+E(xc)   XCENC  =        40.01872720
  PAW double counting   =       853.31800805     -855.00877786
  entropy T*S    EENTRO =        -0.00000000
  eigenvalues    EBANDS =      -150.64260789
  atomic energy  EATOM  =       579.13436270
  ---------------------------------------------------
  free energy    TOTEN  =       -14.50634236 eV

  energy without entropy =      -14.50634236  energy(sigma->0) =      -14.50634236


--------------------------------------------------------------------------------------------------------




--------------------------------------- Iteration      1(  15)  ---------------------------------------


    POTLOK:  cpu time      0.0208: real time      0.0208
    SETDIJ:  cpu time      0.0470: real time      0.0470
    TRIAL :  cpu time      0.0569: real time      0.0569
    CORREC:  cpu time      0.1343: real time      0.1345
    CHARGE:  cpu time      0.0322: real time      0.0322
    --------------------------------------------
      LOOP:  cpu time      0.3030: real time      0.3033

 eigenvalue-minimisations  :     0
 total energy-change (2. order) :-0.2970178E-04  (-0.8292912E-05)
 number of electron      10.0000029 magnetization 
 augmentation part        0.6519411 magnetization 

 DIPCOR: dipole corrections for dipol
 direction  3 min pos     1,
 dipolmoment           0.000000      0.000000     -0.028120 electrons x Angstroem
 Tr[quadrupol]      -355.507511

 energy correction for charged system         0.000000 eV
 dipol+quadrupol energy correction           -0.000047 eV
 added-field ion interaction          0.212330 eV  (added to PSCEN)


 Free energy of the ion-electron system (eV)
  ---------------------------------------------------
  alpha Z        PSCENC =         0.49996917
  Ewald energy   TEWEN  =       192.88447950
  -Hartree energ DENC   =      -674.73087901
  -exchange      EXHF   =         0.00000000
  -V(xc)+E(xc)   XCENC  =        40.01961694
  PAW double counting   =       853.00267227     -854.69372757
  entropy T*S    EENTRO =        -0.00000000
  eigenvalues    EBANDS =      -150.62286606
  atomic energy  EATOM  =       579.13436270
  ---------------------------------------------------
  free energy    TOTEN  =       -14.50637206 eV

  energy without entropy =      -14.50637206  energy(sigma->0) =      -14.50637206


--------------------------------------------------------------------------------------------------------




--------------------------------------- Iteration      1(  16)  ---------------------------------------


    POTLOK:  cpu time      0.0212: real time      0.0212
    SETDIJ:  cpu time      0.0467: real time      0.0467
    TRIAL :  cpu time      0.0576: real time      0.0577
    CORREC:  cpu time      0.1354: real time      0.1355
    EDDIAG:  cpu time      0.0361: real time      0.0364
    CHARGE:  cpu time      0.0321: real time      0.0321
    --------------------------------------------
      LOOP:  cpu time      0.3328: real time      0.3419

 eigenvalue-minimisations  :     0
 total energy-change (2. order) :-0.8328219E-05  (-0.2522797E-05)
 number of electron      10.0000029 magnetization 
 augmentation part        0.6519518 magnetization 

 DIPCOR: dipole corrections for dipol
 direction  3 min pos     1,
 dipolmoment           0.000000      0.000000     -0.028072 electrons x Angstroem
 Tr[quadrupol]      -355.507140

 energy correction for charged system         0.000000 eV
 dipol+quadrupol energy correction           -0.000047 eV
 added-field ion interaction          0.211973 eV  (added to PSCEN)


 Free energy of the ion-electron system (eV)
  ---------------------------------------------------
  alpha Z        PSCENC =         0.49970067
  Ewald energy   TEWEN  =       192.88447950
  -Hartree energ DENC   =      -674.73386176
  -exchange      EXHF   =         0.00000000
  -V(xc)+E(xc)   XCENC  =        40.01974697
  PAW double counting   =       852.84462315     -854.53576503
  entropy T*S    EENTRO =        -0.00000000
  eigenvalues    EBANDS =      -150.61966659
  atomic energy  EATOM  =       579.13436270
  ---------------------------------------------------
  free energy    TOTEN  =       -14.50638039 eV

  energy without entropy =      -14.50638039  energy(sigma->0) =      -14.50638039


--------------------------------------------------------------------------------------------------------


  average scaling for gradient   1.3089


 average (electrostatic) potential at core
  the test charge radii are     0.6991  0.7215
  (the norm of the test charge is              1.0000)
       1 -61.7327       2 -83.4903



 E-fermi :  -8.7437     XC(G=0):  -0.4576     alpha+bet : -0.0940

 Fermi energy:        -8.7436910810

 k-point     1 :       0.0000    0.0000    0.0000
  band No.  band energies     occupation 
      1     -29.1474      2.00000
      2     -13.9862      2.00000
      3     -11.5880      2.00000
      4     -11.5880      2.00000
      5      -8.9980      2.00000
      6      -2.0553      0.00000
      7      -2.0553      0.00000
      8      -0.4002      0.00000
      9       0.1587      0.00000
     10       0.2686      0.00000
     11       1.0699      0.00000
     12       1.1745      0.00000
     13       1.4960      0.00000
     14       1.4960      0.00000
     15       1.5704      0.00000
     16       2.0085      0.00000
     17       2.2400      0.00000
     18       2.2952      0.00000
     19       2.2952      0.00000
     20       2.3670      0.00000
     21       2.3722      0.00000
     22       2.3722      0.00000
     23       2.3829      0.00000
     24       2.4643      0.00000
     25       2.6490      0.00000
     26       2.8194      0.00000
     27       3.1415      0.00000
     28       3.1929      0.00000
     29       3.1929      0.00000
     30       3.2409      0.00000
     31       3.2919      0.00000
     32       3.2970      0.00000
     33       3.3022      0.00000
     34       3.3022      0.00000
     35       3.4139      0.00000
     36       3.7673      0.00000
     37       3.7673      0.00000
     38       4.1862      0.00000
     39       4.3673      0.00000
     40       4.4223      0.00000
     41       4.4223      0.00000
     42       4.4357      0.00000
     43       4.4502      0.00000
     44       4.4917      0.00000
     45       4.4917      0.00000
     46       4.5226      0.00000
     47       4.7340      0.00000
     48       4.8229      0.00000
     49       4.8229      0.00000
     50       4.9141      0.00000
     51       4.9141      0.00000
     52       4.9168      0.00000
     53       4.9318      0.00000
     54       5.0590      0.00000
     55       5.1198      0.00000
     56       5.1783      0.00000
     57       5.2830      0.00000
     58       5.2969      0.00000
     59       5.3862      0.00000
     60       5.3862      0.00000
     61       5.4279      0.00000
     62       5.4434      0.00000
     63       5.4434      0.00000
     64       5.6638      0.00000

 k-point     2 :       0.5000    0.0000    0.0000
  band No.  band energies     occupation 
      1     -29.1474      2.00000
      2     -13.9862      2.00000
      3     -11.5881      2.00000
      4     -11.5880      2.00000
      5      -8.9978      2.00000
      6      -2.0692      0.00000
      7      -2.0541      0.00000
      8       0.0428      0.00000
      9       0.2174      0.00000
     10       0.5710      0.00000
     11       0.7852      0.00000
     12       0.8009      0.00000
     13       0.8368      0.00000
     14       1.5232      0.00000
     15       1.6316      0.00000
     16       1.7337      0.00000
     17       1.7818      0.00000
     18       1.8050      0.00000
     19       2.1500      0.00000
     20       2.3307      0.00000
     21       2.3832      0.00000
     22       2.7142      0.00000
     23       2.7533      0.00000
     24       2.8877      0.00000
     25       2.8959      0.00000
     26       2.8988      0.00000
     27       2.9193      0.00000
     28       2.9291      0.00000
     29       2.9407      0.00000
     30       3.0462      0.00000
     31       3.2929      0.00000
     32       3.3688      0.00000
     33       3.4141      0.00000
     34       3.6541      0.00000
     35       3.6957      0.00000
     36       3.7425      0.00000
     37       3.7810      0.00000
     38       3.8248      0.00000
     39       3.8419      0.00000
     40       3.8774      0.00000
     41       3.9064      0.00000
     42       4.2376      0.00000
     43       4.5176      0.00000
     44       4.8885      0.00000
     45       4.9386      0.00000
     46       4.9913      0.00000
     47       5.0177      0.00000
     48       5.1034      0.00000
     49       5.2502      0.00000
     50       5.3650      0.00000
     51       5.3762      0.00000
     52       5.4423      0.00000
     53       5.4717      0.00000
     54       5.4813      0.00000
     55       5.5146      0.00000
     56       5.5534      0.00000
     57       5.5884      0.00000
     58       5.7187      0.00000
     59       5.7380      0.00000
     60       5.8131      0.00000
     61       5.8429      0.00000
     62       5.8803      0.00000
     63       5.9325      0.00000
     64       5.9707      0.00000

 k-point     3 :       0.5000    0.5000    0.0000
  band No.  band energies     occupation 
      1     -29.1474      2.00000
      2     -13.9862      2.00000
      3     -11.5881      2.00000
      4     -11.5881      2.00000
      5      -8.9977      2.00000
      6      -2.0668      0.00000
      7      -2.0668      0.00000
      8       0.5439      0.00000
      9       0.5806      0.00000
     10       0.5806      0.00000
     11       0.8758      0.00000
     12       0.9628      0.00000
     13       1.2950      0.00000
     14       1.2950      0.00000
     15       1.3133      0.00000
     16       1.3289      0.00000
     17       1.3289      0.00000
     18       1.3490      0.00000
     19       1.4064      0.00000
     20       1.9689      0.00000
     21       2.1427      0.00000
     22       2.2044      0.00000
     23       2.2044      0.00000
     24       2.2722      0.00000
     25       2.2722      0.00000
     26       2.3293      0.00000
     27       2.3459      0.00000
     28       3.4048      0.00000
     29       3.7635      0.00000
     30       3.7655      0.00000
     31       3.8270      0.00000
     32       3.8270      0.00000
     33       3.8858      0.00000
     34       3.8858      0.00000
     35       3.9481      0.00000
     36       3.9859      0.00000
     37       4.4445      0.00000
     38       4.6085      0.00000
     39       4.6085      0.00000
     40       4.9381      0.00000
     41       4.9381      0.00000
     42       5.0907      0.00000
     43       5.2540      0.00000
     44       5.2910      0.00000
     45       5.3088      0.00000
     46       5.3552      0.00000
     47       5.3552      0.00000
     48       5.4925      0.00000
     49       5.4931      0.00000
     50       5.5109      0.00000
     51       5.5360      0.00000
     52       5.5360      0.00000
     53       5.5571      0.00000
     54       5.5571      0.00000
     55       5.5719      0.00000
     56       5.5841      0.00000
     57       5.5841      0.00000
     58       5.5958      0.00000
     59       5.6205      0.00000
     60       5.8877      0.00000
     61       6.0762      0.00000
     62       6.0858      0.00000
     63       6.0862      0.00000
     64       6.1862      0.00000


--------------------------------------------------------------------------------------------------------


 soft charge-density along one line, spin component           1
         0         1         2         3         4         5         6         7         8         9
 total charge-density along one line

 pseudopotential strength for first ion, spin component:           1
 10.443  13.894  -0.000   0.038  -0.000   0.000  -0.110   0.000
 13.894  18.483  -0.000   0.051  -0.000   0.000  -0.145   0.000
 -0.000  -0.000  -4.449   0.000   0.000   8.698  -0.000  -0.000
  0.038   0.051   0.000  -4.505   0.000  -0.000   8.790  -0.000
 -0.000  -0.000   0.000   0.000  -4.449  -0.000  -0.000   8.698
  0.000   0.000   8.698  -0.000  -0.000 -19.147   0.000   0.000
 -0.110  -0.145  -0.000   8.790  -0.000   0.000 -19.298   0.000
  0.000   0.000  -0.000  -0.000   8.698   0.000   0.000 -19.147
 total augmentation occupancy for first ion, spin component:           1
  7.677  -3.500   0.000   2.089   0.000   0.000   0.388   0.000
 -3.500   1.974   0.000  -1.601   0.000   0.000  -0.237   0.000
  0.000   0.000   0.822   0.000   0.000   0.062   0.000   0.000
  2.089  -1.601  -0.000   2.224   0.000   0.000   0.212  -0.000
  0.000   0.000   0.000   0.000   0.822   0.000   0.000   0.062
  0.000   0.000   0.062   0.000   0.000   0.005   0.000   0.000
  0.388  -0.237   0.000   0.212   0.000   0.000   0.029   0.000
  0.000   0.000   0.000  -0.000   0.062   0.000   0.000   0.005


------------------------ aborting loop because EDIFF is reached ----------------------------------------


    FORLOC:  cpu time      0.0005: real time      0.0005
    FORNL :  cpu time      0.0038: real time      0.0038
    STRESS:  cpu time      0.0893: real time      0.0895
    FORCOR:  cpu time      0.0165: real time      0.0165
    OFIELD:  cpu time      0.0001: real time      0.0001
    FORVDW:  cpu time      0.0009: real time      0.0009

  FORCE on cell =-STRESS in cart. coord.  units (eV):
  Direction    XX          YY          ZZ          XY          YZ          ZX
  --------------------------------------------------------------------------------------
  Alpha Z     0.28751     0.28751     0.28751
  Ewald      56.20538    56.20538    80.47363     0.00000     0.00000    -0.00000
  Hartree   279.90905   279.90905   114.92261    -0.00000    -0.00000    -0.00000
  E(xc)     -44.33336   -44.33336   -42.91224    -0.00000    -0.00000    -0.00000
  Local    -471.33299  -471.33299  -304.77203     0.00000     0.00000    -0.00000
  n-local   -17.57096   -17.57116   -28.83442    -0.00000     0.00000     0.00000
  augment     6.19879     6.19879     5.73538    -0.00000    -0.00000    -0.00000
  Kinetic   190.57168   190.57164   174.99335     0.00000    -0.00000     0.00000
  Fock        0.00000     0.00000     0.00000     0.00000     0.00000     0.00000
  vdW        -0.00081    -0.00081    -0.00024     0.00000    -0.00000    -0.00000
  -------------------------------------------------------------------------------------
  Total      -0.06582    -0.06582    -0.10646     0.00000     0.00000     0.00000
  in kB      -0.06939    -0.06939    -0.11223     0.00000     0.00000     0.00000
  external pressure =       -0.08 kB  Pullay stress =        0.00 kB


 VOLUME and BASIS-vectors are now :
 -----------------------------------------------------------------------------
  energy-cutoff  :      600.00
  volume of cell :     1519.82
      direct lattice vectors                 reciprocal lattice vectors
     8.440984654  0.000000000  0.000000000     0.118469591  0.000000000  0.000000000
     0.000000000  8.440984654  0.000000000     0.000000000  0.118469591  0.000000000
     0.000000000  0.000000000 21.330738491     0.000000000  0.000000000  0.046880702

  length of vectors
     8.440984654  8.440984654 21.330738491     0.118469591  0.118469591  0.046880702


 FORCES acting on ions:
    Electron-Ion                     Ewald-Force                    Non-Local-Force
 -----------------------------------------------------------------------------------------------
   0.892E-13 0.586E-12 0.238E+03   0.268E-16 0.104E-15 -.265E+03   0.000E+00 0.827E-24 0.278E+02
   0.397E-12 0.599E-12 -.207E+03   0.145E-15 -.631E-17 0.265E+03   0.000E+00 0.000E+00 -.589E+02
 -----------------------------------------------------------------------------------------------
   0.486E-12 0.119E-11 0.311E+02   0.171E-15 0.981E-16 0.000E+00   0.000E+00 0.827E-24 -.311E+02


 POSITION                                       TOTAL-FORCE (eV/Angst)
 -----------------------------------------------------------------------------------
      4.22049      4.22049     16.31916         0.000000     -0.000000      0.028326
      4.22049      4.22049     17.46598         0.000000      0.000000     -0.028326
 -----------------------------------------------------------------------------------
    total drift:                                0.000000      0.000000     -0.007495


--------------------------------------------------------------------------------------------------------



  FREE ENERGIE OF THE ION-ELECTRON SYSTEM (eV)
  ---------------------------------------------------
  free  energy   TOTEN  =       -14.54870784 eV

  energy  without entropy=      -14.54870784  energy(sigma->0) =      -14.54870784



--------------------------------------------------------------------------------------------------------


    POTLOK:  cpu time      0.0683: real time      0.0684


--------------------------------------------------------------------------------------------------------


     LOOP+:  cpu time      8.1521: real time      8.2405
    4ORBIT:  cpu time      0.0000: real time      0.0000

 total amount of memory used by VASP MPI-rank0    46439. kBytes
=======================================================================

   base      :      30000. kBytes
   nonl-proj :       5298. kBytes
   fftplans  :       3857. kBytes
   grid      :       5439. kBytes
   one-center:          3. kBytes
   wavefun   :       1842. kBytes

  
  
 General timing and accounting informations for this job:
 ========================================================
  
                  Total CPU time used (sec):       20.780
                            User time (sec):       19.775
                          System time (sec):        1.005
                         Elapsed time (sec):       23.252
  
                   Maximum memory used (kb):      133964.
                   Average memory used (kb):          N/A
  
                          Minor page faults:        23998
                          Major page faults:            0
                 Voluntary context switches:         6368
