 vasp.6.3.0 20Jan22 (build Mar 11 2022 13:48:16) complex                        
  
 executed on             LinuxIFC date 2023.06.16  11:07:39
 running on  304 total cores
 distrk:  each k-point on  304 cores,    1 groups
 distr:  one band on NCORE=   2 cores,  152 groups


--------------------------------------------------------------------------------------------------------


 INCAR:
   SYSTEM = MgO-rocksalt
   ISMEAR = 0
   SIGMA = 0.05
   EDIFF = 1E-7
   POTIM = 0.5
   ALGO = ALL
   ISTART = 0
   IBRION = 2
   NSW = 1000
   ISYM = 2
   ISIF = 2
   EDIFFG = -0.01
   DIPOL = 0.5 0.5 0.5
   IDIPOL = 3
   LDIPOL = .TRUE.
   GGA = RE
   IVDW = 13
   VDW_S8 = 1.7468
   VDW_A1 = 0.5363
   VDW_A2 = 3.0726
   ENCUT = 600
   PREC = Normal
   LASPH = .TRUE.
   LREAL = .FALSE.
   ISPIN = 1
   NELM = 200
   NELMIN = 8
   NCORE = 2
   KPAR = 1
   LWAVE = .FALSE.
   LCHARG = .FALSE.

 POTCAR:    PAW_PBE Mg_pv 13Apr2007               
 POTCAR:    PAW_PBE O 08Apr2002                   
 -----------------------------------------------------------------------------
|                                                                             |
|           W    W    AA    RRRRR   N    N  II  N    N   GGGG   !!!           |
|           W    W   A  A   R    R  NN   N  II  NN   N  G    G  !!!           |
|           W    W  A    A  R    R  N N  N  II  N N  N  G       !!!           |
|           W WW W  AAAAAA  RRRRR   N  N N  II  N  N N  G  GGG   !            |
|           WW  WW  A    A  R   R   N   NN  II  N   NN  G    G                |
|           W    W  A    A  R    R  N    N  II  N    N   GGGG   !!!           |
|                                                                             |
|     For optimal performance we recommend to set                             |
|       NCORE = 2 up to number-of-cores-per-socket                            |
|     NCORE specifies how many cores store one orbital (NPAR=cpu/NCORE).      |
|     This setting can greatly improve the performance of VASP for DFT.       |
|     The default, NCORE=1 might be grossly inefficient on modern             |
|     multi-core architectures or massively parallel machines. Do your        |
|     own testing! More info at https://www.vasp.at/wiki/index.php/NCORE      |
|     Unfortunately you need to use the default for GW and RPA                |
|     calculations (for HF NCORE is supported but not extensively tested      |
|     yet).                                                                   |
|                                                                             |
 -----------------------------------------------------------------------------

 POTCAR:    PAW_PBE Mg_pv 13Apr2007               
   SHA256 =  f474ac0dd33840b9ae76c01d57fea79fdf77cdfbb07d5ade72c65f83c709b62b Mg_pv/POTCAR          
   COPYR  = (c) Copyright 13Apr2007 Georg Kresse                                                    
   COPYR  = This file is part of the software VASP. Any use, copying, and all other rights are regul
   COPYR  = If you do not have a valid VASP license, you may not use, copy or distribute this file. 
   VRHFIN =Mg: p6s2                                                                                 
   LEXCH  = PE                                                                                      
   EATOM  =  1056.7344 eV,   77.6678 Ry                                                             
                                                                                                    
   TITEL  = PAW_PBE Mg_pv 13Apr2007                                                                 
   LULTRA =        F    use ultrasoft PP ?                                                          
   IUNSCR =        1    unscreen: 0-lin 1-nonlin 2-no                                               
   RPACOR =    1.500    partial core radius                                                         
   POMASS =   24.305; ZVAL   =    8.000    mass and valenz                                          
   RCORE  =    2.000    outmost cutoff radius                                                       
   RWIGS  =    2.000; RWIGS  =    1.058    wigner-seitz radius (au A)                               
   ENMAX  =  403.929; ENMIN  =  302.947 eV                                                          
   RCLOC  =    1.506    cutoff for local pot                                                        
   LCOR   =        T    correct aug charges                                                         
   LPAW   =        T    paw PP                                                                      
   EAUG   =  758.780                                                                                
   DEXC   =    0.000                                                                                
   RMAX   =    2.045    core radius for proj-oper                                                   
   RAUG   =    1.300    factor for augmentation sphere                                              
   RDEP   =    2.025    radius for radial grids                                                     
   RDEPT  =    1.557    core radius for aug-charge                                                  
                                                                                                    
   Atomic configuration                                                                             
    5 entries                                                                                       
     n  l   j            E        occ.                                                              
     1  0  0.50     -1259.6230   2.0000                                                             
     2  0  0.50       -79.8442   2.0000                                                             
     2  1  1.50       -46.6121   6.0000                                                             
     3  0  0.50        -4.7055   2.0000                                                             
     3  2  1.50        -1.3606   0.0000                                                             
   Description                                                                                      
     l       E           TYP  RCUT    TYP  RCUT                                                     
     1    -46.6121073     23  1.600                                                                 
     1      2.7211652     23  1.600                                                                 
     0     -4.7054661     23  2.000                                                                 
     0     61.2262170     23  2.000                                                                 
     2     -1.3605826     23  2.000                                                                 
  local pseudopotential read in
  partial core-charges read in
  partial kinetic energy density read in
  atomic valenz-charges read in
  non local Contribution for L=           1  read in
    real space projection operators read in
  non local Contribution for L=           1  read in
    real space projection operators read in
  non local Contribution for L=           0  read in
    real space projection operators read in
  non local Contribution for L=           0  read in
    real space projection operators read in
  non local Contribution for L=           2  read in
    real space projection operators read in
    PAW grid and wavefunctions read in
 
   number of l-projection  operators is LMAX  =           5
   number of lm-projection operators is LMMAX =          13
 
 POTCAR:    PAW_PBE O 08Apr2002                   
   SHA256 =  818f92134a0a090dccd8ba1447fa70422a3b330e708bb4f08108d8ae51209ddf O/POTCAR              
   COPYR  = (c) Copyright 08Apr2002 Georg Kresse                                                    
   COPYR  = This file is part of the software VASP. Any use, copying, and all other rights are regul
   COPYR  = If you do not have a valid VASP license, you may not use, copy or distribute this file. 
   VRHFIN =O: s2p4                                                                                  
   LEXCH  = PE                                                                                      
   EATOM  =   432.3788 eV,   31.7789 Ry                                                             
                                                                                                    
   TITEL  = PAW_PBE O 08Apr2002                                                                     
   LULTRA =        F    use ultrasoft PP ?                                                          
   IUNSCR =        1    unscreen: 0-lin 1-nonlin 2-no                                               
   RPACOR =    1.200    partial core radius                                                         
   POMASS =   16.000; ZVAL   =    6.000    mass and valenz                                          
   RCORE  =    1.520    outmost cutoff radius                                                       
   RWIGS  =    1.550; RWIGS  =    0.820    wigner-seitz radius (au A)                               
   ENMAX  =  400.000; ENMIN  =  300.000 eV                                                          
   ICORE  =        2    local potential                                                             
   LCOR   =        T    correct aug charges                                                         
   LPAW   =        T    paw PP                                                                      
   EAUG   =  605.392                                                                                
   DEXC   =    0.000                                                                                
   RMAX   =    1.553    core radius for proj-oper                                                   
   RAUG   =    1.300    factor for augmentation sphere                                              
   RDEP   =    1.550    radius for radial grids                                                     
   RDEPT  =    1.329    core radius for aug-charge                                                  
                                                                                                    
   Atomic configuration                                                                             
    4 entries                                                                                       
     n  l   j            E        occ.                                                              
     1  0  0.50      -514.6923   2.0000                                                             
     2  0  0.50       -23.9615   2.0000                                                             
     2  1  0.50        -9.0305   4.0000                                                             
     3  2  1.50        -9.5241   0.0000                                                             
   Description                                                                                      
     l       E           TYP  RCUT    TYP  RCUT                                                     
     0    -23.9615318     23  1.200                                                                 
     0     -9.5240782     23  1.200                                                                 
     1     -9.0304911     23  1.520                                                                 
     1      8.1634956     23  1.520                                                                 
     2     -9.5240782      7  1.500                                                                 
  local pseudopotential read in
  partial core-charges read in
  partial kinetic energy density read in
  kinetic energy density of atom read in
  atomic valenz-charges read in
  non local Contribution for L=           0  read in
    real space projection operators read in
  non local Contribution for L=           0  read in
    real space projection operators read in
  non local Contribution for L=           1  read in
    real space projection operators read in
  non local Contribution for L=           1  read in
    real space projection operators read in
    PAW grid and wavefunctions read in
 
   number of l-projection  operators is LMAX  =           4
   number of lm-projection operators is LMMAX =           8
 
 -----------------------------------------------------------------------------
|                                                                             |
|               ----> ADVICE to this user running VASP <----                  |
|                                                                             |
|     You have a (more or less) 'large supercell' and for larger cells it     |
|     might be more efficient to use real-space projection operators.         |
|     Therefore, try LREAL= Auto in the INCAR file.                           |
|     Mind: For very accurate calculation, you might also keep the            |
|     reciprocal projection scheme (i.e. LREAL=.FALSE.).                      |
|                                                                             |
 -----------------------------------------------------------------------------

 -----------------------------------------------------------------------------
|                                                                             |
|               ----> ADVICE to this user running VASP <----                  |
|                                                                             |
|     You enforced a specific xc type in the INCAR file but a different       |
|     type was found in the POTCAR file.                                      |
|     I HOPE YOU KNOW WHAT YOU ARE DOING!                                     |
|                                                                             |
 -----------------------------------------------------------------------------

  PAW_PBE Mg_pv 13Apr2007               :
 energy of atom  1       EATOM=-1056.7344
 kinetic energy error for atom=    0.0221 (will be added to EATOM!!)
  PAW_PBE O 08Apr2002                   :
 energy of atom  2       EATOM= -432.3788
 kinetic energy error for atom=    0.0168 (will be added to EATOM!!)
 
 
 POSCAR: Mg  O
  positions in direct lattice
  No initial velocities read in
 -----------------------------------------------------------------------------
|                                                                             |
|           W    W    AA    RRRRR   N    N  II  N    N   GGGG   !!!           |
|           W    W   A  A   R    R  NN   N  II  NN   N  G    G  !!!           |
|           W    W  A    A  R    R  N N  N  II  N N  N  G       !!!           |
|           W WW W  AAAAAA  RRRRR   N  N N  II  N  N N  G  GGG   !            |
|           WW  WW  A    A  R   R   N   NN  II  N   NN  G    G                |
|           W    W  A    A  R    R  N    N  II  N    N   GGGG   !!!           |
|                                                                             |
|     Specifying the vdW parameters                                           |
|     VDW_S8 = 1.747                                                          |
|     VDW_A1 = 0.536                                                          |
|     VDW_A2 = 3.073                                                          |
|     in the INCAR file will overwrite the defaults for revpbe. Please        |
|     make sure that is what you intended.                                    |
|                                                                             |
 -----------------------------------------------------------------------------

 exchange correlation table for  LEXCH =       40
   RHO(1)=    0.500       N(1)  =     2000
   RHO(2)=  100.500       N(2)  =     4000
 


--------------------------------------------------------------------------------------------------------


 ion  position               nearest neighbor table
   1  0.000  0.750  0.380-  35 2.11  36 2.11  43 2.11  52 2.11  33 2.11
   2  0.250  0.000  0.380-  35 2.11  36 2.11  44 2.11  51 2.11  34 2.11
   3  0.000  0.000  0.460-  39 2.11  34 2.11  33 2.11  41 2.11  50 2.11  35 2.11
   4  0.250  0.750  0.460-  40 2.11  34 2.11  33 2.11  42 2.11  49 2.11  36 2.11
   5  0.000  0.750  0.540-  33 2.11  39 2.11  40 2.11  47 2.11  56 2.11  37 2.11
   6  0.250  0.000  0.540-  34 2.11  39 2.11  40 2.11  48 2.11  55 2.11  38 2.11
   7  0.000  0.000  0.620-  37 2.11  38 2.11  45 2.11  54 2.11  39 2.11
   8  0.250  0.750  0.620-  37 2.11  38 2.11  46 2.11  53 2.11  40 2.11
   9  0.000  0.250  0.380-  35 2.11  43 2.11  44 2.11  60 2.11  41 2.11
  10  0.250  0.500  0.380-  36 2.11  43 2.11  44 2.11  59 2.11  42 2.11
  11  0.000  0.500  0.460-  47 2.11  41 2.11  42 2.11  33 2.11  58 2.11  43 2.11
  12  0.250  0.250  0.460-  48 2.11  41 2.11  42 2.11  34 2.11  57 2.11  44 2.11
  13  0.000  0.250  0.540-  41 2.11  39 2.11  47 2.11  48 2.11  64 2.11  45 2.11
  14  0.250  0.500  0.540-  42 2.11  40 2.11  47 2.11  48 2.11  63 2.11  46 2.11
  15  0.000  0.500  0.620-  37 2.11  45 2.11  46 2.11  62 2.11  47 2.11
  16  0.250  0.250  0.620-  38 2.11  45 2.11  46 2.11  61 2.11  48 2.11
  17  0.500  0.750  0.380-  36 2.11  51 2.11  52 2.11  59 2.11  49 2.11
  18  0.750  0.000  0.380-  35 2.11  51 2.11  52 2.11  60 2.11  50 2.11
  19  0.500  0.000  0.460-  55 2.11  49 2.11  50 2.11  34 2.11  57 2.11  51 2.11
  20  0.750  0.750  0.460-  56 2.11  49 2.11  50 2.11  33 2.11  58 2.11  52 2.11
  21  0.500  0.750  0.540-  49 2.11  40 2.11  55 2.11  56 2.11  63 2.11  53 2.11
  22  0.750  0.000  0.540-  50 2.11  39 2.11  55 2.11  56 2.11  64 2.11  54 2.11
  23  0.500  0.000  0.620-  38 2.11  53 2.11  54 2.11  61 2.11  55 2.11
  24  0.750  0.750  0.620-  37 2.11  53 2.11  54 2.11  62 2.11  56 2.11
  25  0.500  0.250  0.380-  44 2.11  51 2.11  59 2.11  60 2.11  57 2.11
  26  0.750  0.500  0.380-  43 2.11  52 2.11  59 2.11  60 2.11  58 2.11
  27  0.500  0.500  0.460-  63 2.11  49 2.11  57 2.11  58 2.11  42 2.11  59 2.11
  28  0.750  0.250  0.460-  64 2.11  50 2.11  57 2.11  58 2.11  41 2.11  60 2.11
  29  0.500  0.250  0.540-  57 2.11  55 2.11  48 2.11  63 2.11  64 2.11  61 2.11
  30  0.750  0.500  0.540-  58 2.11  56 2.11  47 2.11  63 2.11  64 2.11  62 2.11
  31  0.500  0.500  0.620-  46 2.11  53 2.11  61 2.11  62 2.11  63 2.11
  32  0.750  0.250  0.620-  45 2.11  54 2.11  61 2.11  62 2.11  64 2.11
  33  0.000  0.750  0.460-   5 2.11   4 2.11   3 2.11  11 2.11  20 2.11   1 2.11
  34  0.250  0.000  0.460-   6 2.11   4 2.11   3 2.11  12 2.11  19 2.11   2 2.11
  35  0.000  0.000  0.380-   1 2.11   2 2.11   9 2.11  18 2.11   3 2.11
  36  0.250  0.750  0.380-   1 2.11   2 2.11  10 2.11  17 2.11   4 2.11
  37  0.000  0.750  0.620-   7 2.11   8 2.11  15 2.11  24 2.11   5 2.11
  38  0.250  0.000  0.620-   7 2.11   8 2.11  16 2.11  23 2.11   6 2.11
  39  0.000  0.000  0.540-   3 2.11   5 2.11   6 2.11  13 2.11  22 2.11   7 2.11
  40  0.250  0.750  0.540-   4 2.11   5 2.11   6 2.11  14 2.11  21 2.11   8 2.11
  41  0.000  0.250  0.460-  13 2.11  11 2.11  12 2.11   3 2.11  28 2.11   9 2.11
  42  0.250  0.500  0.460-  14 2.11  11 2.11  12 2.11   4 2.11  27 2.11  10 2.11
  43  0.000  0.500  0.380-   1 2.11   9 2.11  10 2.11  26 2.11  11 2.11
  44  0.250  0.250  0.380-   2 2.11   9 2.11  10 2.11  25 2.11  12 2.11
  45  0.000  0.250  0.620-   7 2.11  15 2.11  16 2.11  32 2.11  13 2.11
  46  0.250  0.500  0.620-   8 2.11  15 2.11  16 2.11  31 2.11  14 2.11
  47  0.000  0.500  0.540-  11 2.11   5 2.11  13 2.11  14 2.11  30 2.11  15 2.11
  48  0.250  0.250  0.540-  12 2.11   6 2.11  13 2.11  14 2.11  29 2.11  16 2.11
  49  0.500  0.750  0.460-  21 2.11  19 2.11  20 2.11   4 2.11  27 2.11  17 2.11
  50  0.750  0.000  0.460-  22 2.11  19 2.11  20 2.11   3 2.11  28 2.11  18 2.11
  51  0.500  0.000  0.380-   2 2.11  17 2.11  18 2.11  25 2.11  19 2.11
  52  0.750  0.750  0.380-   1 2.11  17 2.11  18 2.11  26 2.11  20 2.11
  53  0.500  0.750  0.620-   8 2.11  23 2.11  24 2.11  31 2.11  21 2.11
  54  0.750  0.000  0.620-   7 2.11  23 2.11  24 2.11  32 2.11  22 2.11
  55  0.500  0.000  0.540-  19 2.11   6 2.11  21 2.11  22 2.11  29 2.11  23 2.11
  56  0.750  0.750  0.540-  20 2.11   5 2.11  21 2.11  22 2.11  30 2.11  24 2.11
  57  0.500  0.250  0.460-  29 2.11  19 2.11  27 2.11  28 2.11  12 2.11  25 2.11
  58  0.750  0.500  0.460-  30 2.11  20 2.11  27 2.11  28 2.11  11 2.11  26 2.11
  59  0.500  0.500  0.380-  10 2.11  17 2.11  25 2.11  26 2.11  27 2.11
  60  0.750  0.250  0.380-   9 2.11  18 2.11  25 2.11  26 2.11  28 2.11
  61  0.500  0.250  0.620-  16 2.11  23 2.11  31 2.11  32 2.11  29 2.11
  62  0.750  0.500  0.620-  15 2.11  24 2.11  31 2.11  32 2.11  30 2.11
  63  0.500  0.500  0.540-  27 2.11  21 2.11  14 2.11  29 2.11  30 2.11  31 2.11
  64  0.750  0.250  0.540-  28 2.11  22 2.11  13 2.11  29 2.11  30 2.11  32 2.11
 
  LATTYP: Found a simple tetragonal cell.
 ALAT       =     8.4409846542
 C/A-ratio  =     3.1193918209
  
  Lattice vectors:
  
 A1 = (   8.4409846542,   0.0000000000,   0.0000000000)
 A2 = (   0.0000000000,   8.4409846542,   0.0000000000)
 A3 = (   0.0000000000,   0.0000000000,  26.3307384906)


Analysis of symmetry for initial positions (statically):
=====================================================================
 Subroutine PRICEL returns following result:
 
  LATTYP: Found a simple tetragonal cell.
 ALAT       =     2.9843387444
 C/A-ratio  =     8.8229724390
  
  Lattice vectors:
  
 A1 = (   2.1102461635,  -2.1102461635,   0.0000000000)
 A2 = (   2.1102461635,   2.1102461635,   0.0000000000)
 A3 = (   0.0000000000,   0.0000000000,  26.3307384906)
 
   8 primitive cells build up your supercell.
 

 Routine SETGRP: Setting up the symmetry group for a 
 simple tetragonal supercell.


 Subroutine GETGRP returns: Found 16 space group operations
 (whereof  8 operations were pure point group operations)
 out of a pool of 16 trial point group operations.


The static configuration has the point symmetry C_4v.
 The point group associated with its full space group is D_4h.


Analysis of symmetry for dynamics (positions and initial velocities):
=====================================================================
 Subroutine PRICEL returns following result:
 
  LATTYP: Found a simple tetragonal cell.
 ALAT       =     2.9843387444
 C/A-ratio  =     8.8229724390
  
  Lattice vectors:
  
 A1 = (   2.1102461635,  -2.1102461635,   0.0000000000)
 A2 = (   2.1102461635,   2.1102461635,   0.0000000000)
 A3 = (   0.0000000000,   0.0000000000,  26.3307384906)
 
   8 primitive cells build up your supercell.
 

 Routine SETGRP: Setting up the symmetry group for a 
 simple tetragonal supercell.


 Subroutine GETGRP returns: Found 16 space group operations
 (whereof  8 operations were pure point group operations)
 out of a pool of 16 trial point group operations.


The dynamic configuration has the point symmetry C_4v.
 The point group associated with its full space group is D_4h.


Analysis of constrained symmetry for selective dynamics:
=====================================================================
 Subroutine PRICEL returns following result:
 
  LATTYP: Found a simple tetragonal cell.
 ALAT       =     2.9843387444
 C/A-ratio  =     8.8229724390
  
  Lattice vectors:
  
 A1 = (   2.1102461635,  -2.1102461635,   0.0000000000)
 A2 = (   2.1102461635,   2.1102461635,   0.0000000000)
 A3 = (   0.0000000000,   0.0000000000,  26.3307384906)
 
   8 primitive cells build up your supercell.
 

 Routine SETGRP: Setting up the symmetry group for a 
 simple tetragonal supercell.


 Subroutine GETGRP returns: Found  8 space group operations
 (whereof  8 operations were pure point group operations)
 out of a pool of 16 trial point group operations.


The constrained configuration has the point symmetry C_4v.


 Subroutine INISYM returns: Found  8 space group operations
 (whereof  8 operations are pure point group operations),
 and found     8 'primitive' translations


----------------------------------------------------------------------------------------

                                     Primitive cell                                     

  volume of cell :     234.5089

  direct lattice vectors                    reciprocal lattice vectors
     2.110246164 -2.110246164  0.000000000     0.236939182 -0.236939182  0.000000000
     2.110246164  2.110246164  0.000000000     0.236939182  0.236939182  0.000000000
     0.000000000  0.000000000 26.330738491     0.000000000  0.000000000  0.037978426

  length of vectors
     2.984338744  2.984338744 26.330738491     0.335082605  0.335082605  0.037978426

  position of ions in fractional coordinates (direct lattice)
     0.500000000  0.500000000  0.379784259
     0.000000000  0.000000000  0.459928086
     0.500000000  0.500000000  0.540071914
     0.000000000  0.000000000  0.620215741
     0.500000000  0.500000000  0.459928086
     0.000000000  0.000000000  0.379784259
     0.500000000  0.500000000  0.620215741
     0.000000000  0.000000000  0.540071914

  ion indices of the primitive-cell ions
   primitive index   ion index
                 1           1
                 2           3
                 3           5
                 4           7
                 5          33
                 6          35
                 7          37
                 8          39

----------------------------------------------------------------------------------------

 
 
 KPOINTS: pymatgen v2020.8.13 with grid density = 

Automatic generation of k-mesh.
 Grid dimensions read from file:
 generate k-points for:    2    2    1

 Generating k-lattice:

  Cartesian coordinates                     Fractional coordinates (reciprocal lattice)
     0.059234796  0.000000000  0.000000000     0.500000000  0.000000000  0.000000000
     0.000000000  0.059234796  0.000000000     0.000000000  0.500000000  0.000000000
     0.000000000  0.000000000  0.037978426     0.000000000  0.000000000  1.000000000

  Length of vectors
     0.059234796  0.059234796  0.037978426

  Shift w.r.t. Gamma in fractional coordinates (k-lattice)
     0.000000000  0.000000000  0.000000000

 
 Subroutine IBZKPT returns following result:
 ===========================================
 
 Found      3 irreducible k-points:
 
 Following reciprocal coordinates:
            Coordinates               Weight
  0.000000  0.000000  0.000000      1.000000
  0.500000  0.000000  0.000000      2.000000
  0.500000  0.500000  0.000000      1.000000
 
 Following cartesian coordinates:
            Coordinates               Weight
  0.000000  0.000000  0.000000      1.000000
  0.059235  0.000000  0.000000      2.000000
  0.059235  0.059235  0.000000      1.000000
 


--------------------------------------------------------------------------------------------------------




 Dimension of arrays:
   k-points           NKPTS =      3   k-points in BZ     NKDIM =      3   number of bands    NBANDS=    304
   number of dos      NEDOS =    301   number of ions     NIONS =     64
   non local maximal  LDIM  =      5   non local SUM 2l+1 LMDIM =     13
   total plane-waves  NPLWV = 466560
   max r-space proj   IRMAX =      1   max aug-charges    IRDMAX=   5100
   dimension x,y,z NGX =    54 NGY =   54 NGZ =  160
   dimension x,y,z NGXF=   108 NGYF=  108 NGZF=  320
   support grid    NGXF=   108 NGYF=  108 NGZF=  320
   ions per type =              32  32
   NGX,Y,Z   is equivalent  to a cutoff of  10.64, 10.64, 10.10 a.u.
   NGXF,Y,Z  is equivalent  to a cutoff of  21.27, 21.27, 20.20 a.u.

 SYSTEM =  MgO-rocksalt                            
 POSCAR =  Mg  O                                   

 Startparameter for this run:
   NWRITE =      2    write-flag & timer
   PREC   = normal    normal or accurate (medium, high low for compatibility)
   ISTART =      0    job   : 0-new  1-cont  2-samecut
   ICHARG =      2    charge: 1-file 2-atom 10-const
   ISPIN  =      1    spin polarized calculation?
   LNONCOLLINEAR =      F non collinear calculations
   LSORBIT =      F    spin-orbit coupling
   INIWAV =      1    electr: 0-lowe 1-rand  2-diag
   LASPH  =      T    aspherical Exc in radial PAW
 Electronic Relaxation 1
   ENCUT  =  600.0 eV  44.10 Ry    6.64 a.u.  16.86 16.86 52.59*2*pi/ulx,y,z
   ENINI  =  600.0     initial cutoff
   ENAUG  =  758.8 eV  augmentation charge cutoff
   NELM   =    200;   NELMIN=  8; NELMDL= -5     # of ELM steps 
   EDIFF  = 0.1E-06   stopping-criterion for ELM
   LREAL  =      F    real-space projection
   NLSPLINE    = F    spline interpolate recip. space projectors
   LCOMPAT=      F    compatible to vasp.4.4
   GGA_COMPAT  = T    GGA compatible to vasp.4.4-vasp.4.6
   LMAXPAW     = -100 max onsite density
   LMAXMIX     =    2 max onsite mixed and CHGCAR
   VOSKOWN=      0    Vosko Wilk Nusair interpolation
   ROPT   =    0.00000   0.00000
 Ionic relaxation
   EDIFFG = -.1E-01   stopping-criterion for IOM
   NSW    =   1000    number of steps for IOM
   NBLOCK =      1;   KBLOCK =   1000    inner block; outer block 
   IBRION =      2    ionic relax: 0-MD 1-quasi-New 2-CG
   NFREE  =      1    steps in history (QN), initial steepest desc. (CG)
   ISIF   =      2    stress and relaxation
   IWAVPR =     11    prediction:  0-non 1-charg 2-wave 3-comb
   ISYM   =      2    0-nonsym 1-usesym 2-fastsym
   LCORR  =      T    Harris-Foulkes like correction to forces

   POTIM  = 0.5000    time-step for ionic-motion
   TEIN   =    0.0    initial temperature
   TEBEG  =    0.0;   TEEND  =   0.0 temperature during run
   SMASS  =  -3.00    Nose mass-parameter (am)
   estimated Nose-frequenzy (Omega)   =  0.10E-29 period in steps = 0.13E+47 mass=  -0.163E-26a.u.
   SCALEE = 1.0000    scale energy and forces
   NPACO  =    256;   APACO  = 10.0  distance and # of slots for P.C.
   PSTRESS=    0.0 pullay stress

  Mass of Ions in am
   POMASS =  24.30 16.00
  Ionic Valenz
   ZVAL   =   8.00  6.00
  Atomic Wigner-Seitz radii
   RWIGS  =  -1.00 -1.00
  virtual crystal weights 
   VCA    =   1.00  1.00
   NELECT =     448.0000    total number of electrons
   NUPDOWN=      -1.0000    fix difference up-down

 DOS related values:
   EMIN   =  10.00;   EMAX   =-10.00  energy-range for DOS
   EFERMI =   0.00
   ISMEAR =     0;   SIGMA  =   0.05  broadening in eV -4-tet -1-fermi 0-gaus

 Electronic relaxation 2 (details)
   IALGO  =     58    algorithm
   LDIAG  =      T    sub-space diagonalisation (order eigenvalues)
   LSUBROT=      F    optimize rotation matrix (better conditioning)
   TURBO    =      0    0=normal 1=particle mesh
   IRESTART =      0    0=no restart 2=restart with 2 vectors
   NREBOOT  =      0    no. of reboots
   NMIN     =      0    reboot dimension
   EREF     =   0.00    reference energy to select bands
   IMIX   =      4    mixing-type and parameters
     AMIX     =   0.40;   BMIX     =  1.00
     AMIX_MAG =   1.60;   BMIX_MAG =  1.00
     AMIN     =   0.10
     WC   =   100.;   INIMIX=   1;  MIXPRE=   1;  MAXMIX= -45

 Intra band minimization:
   WEIMIN = 0.0010     energy-eigenvalue tresh-hold
   EBREAK =  0.82E-10  absolut break condition
   DEPER  =   0.30     relativ break condition  

   TIME   =   0.40     timestep for ELM

  volume/ion in A,a.u.               =      29.31       197.82
  Fermi-wavevector in a.u.,A,eV,Ry     =   1.015666  1.919331 14.035474  1.031578
  Thomas-Fermi vector in A             =   2.148965
 
 Write flags
   LWAVE        =      F    write WAVECAR
   LDOWNSAMPLE  =      F    k-point downsampling of WAVECAR
   LCHARG       =      F    write CHGCAR
   LVTOT        =      F    write LOCPOT, total local potential
   LVHAR        =      F    write LOCPOT, Hartree potential only
   LELF         =      F    write electronic localiz. function (ELF)
   LORBIT       =      0    0 simple, 1 ext, 2 COOP (PROOUT), +10 PAW based schemes


 Dipole corrections
   LMONO  =      F    monopole corrections only (constant potential shift)
   LDIPOL =      T    correct potential (dipole corrections)
   IDIPOL =      3    1-x, 2-y, 3-z, 4-all directions 
   EPSILON=  1.0000000 bulk dielectric constant

 Exchange correlation treatment:
   GGA     =    RE    GGA type
   LEXCH   =    40    internal setting for exchange type
   LIBXC   =     F    Libxc                    
   VOSKOWN =     0    Vosko Wilk Nusair interpolation
   LHFCALC =     F    Hartree Fock is set to
   LHFONE  =     F    Hartree Fock one center treatment
   AEXX    =    0.0000 exact exchange contribution

 Linear response parameters
   LEPSILON=     F    determine dielectric tensor
   LRPA    =     F    only Hartree local field effects (RPA)
   LNABLA  =     F    use nabla operator in PAW spheres
   LVEL    =     F    velocity operator in full k-point grid
   CSHIFT  =0.1000    complex shift for real part using Kramers Kronig
   OMEGAMAX=  -1.0    maximum frequency
   DEG_THRESHOLD= 0.2000000E-02 threshold for treating states as degnerate
   RTIME   =   -0.100 relaxation time in fs
  (WPLASMAI=    0.000 imaginary part of plasma frequency in eV, 0.658/RTIME)
   DFIELD  = 0.0000000 0.0000000 0.0000000 field for delta impulse in time
 
  Optional k-point grid parameters
   LKPOINTS_OPT  =     F    use optional k-point grid
   KPOINTS_OPT_MODE=     1    mode for optional k-point grid
 
 Orbital magnetization related:
   ORBITALMAG=     F  switch on orbital magnetization
   LCHIMAG   =     F  perturbation theory with respect to B field
   DQ        =  0.001000  dq finite difference perturbation B field
   LLRAUG    =     F  two centre corrections for induced B field



--------------------------------------------------------------------------------------------------------


 conjugate gradient relaxation of ions
   using selective dynamics as specified on POSCAR
 charge density and potential will be updated during run
 non-spin polarized calculation
 Conjugate gradient for all bands (Freysoldt, et al. PRB 79, 241103 (2009))
 preconditioned conjugated gradient                                        
 perform sub-space diagonalisation
    before iterative eigenvector-optimisation
 modified Broyden-mixing scheme, WC =      100.0
 initial mixing is a Kerker type mixing with AMIX =  0.4000 and BMIX =      1.0000
 Hartree-type preconditioning will be used
 using additional bands           80
 reciprocal scheme for non local part
 use partial core corrections
 no Harris-corrections to forces 
 use gradient corrections 
 use of overlap-Matrix (Vanderbilt PP)
 Gauss-broadening in eV      SIGMA  =   0.05


--------------------------------------------------------------------------------------------------------


  energy-cutoff  :      600.00
  volume of cell :     1876.07
      direct lattice vectors                 reciprocal lattice vectors
     8.440984654  0.000000000  0.000000000     0.118469591  0.000000000  0.000000000
     0.000000000  8.440984654  0.000000000     0.000000000  0.118469591  0.000000000
     0.000000000  0.000000000 26.330738491     0.000000000  0.000000000  0.037978426

  length of vectors
     8.440984654  8.440984654 26.330738491     0.118469591  0.118469591  0.037978426


 
 k-points in units of 2pi/SCALE and weight: pymatgen v2020.8.13 with grid density = 
   0.00000000  0.00000000  0.00000000       0.250
   0.05923480  0.00000000  0.00000000       0.500
   0.05923480  0.05923480  0.00000000       0.250
 
 k-points in reciprocal lattice and weights: pymatgen v2020.8.13 with grid density = 
   0.00000000  0.00000000  0.00000000       0.250
   0.50000000  0.00000000  0.00000000       0.500
   0.50000000  0.50000000  0.00000000       0.250
 
 position of ions in fractional coordinates (direct lattice) 
   0.00000000  0.75000000  0.37978426
   0.25000000  0.00000000  0.37978426
   0.00000000  0.00000000  0.45992809
   0.25000000  0.75000000  0.45992809
   0.00000000  0.75000000  0.54007191
   0.25000000  0.00000000  0.54007191
   0.00000000  0.00000000  0.62021574
   0.25000000  0.75000000  0.62021574
   0.00000000  0.25000000  0.37978426
   0.25000000  0.50000000  0.37978426
   0.00000000  0.50000000  0.45992809
   0.25000000  0.25000000  0.45992809
   0.00000000  0.25000000  0.54007191
   0.25000000  0.50000000  0.54007191
   0.00000000  0.50000000  0.62021574
   0.25000000  0.25000000  0.62021574
   0.50000000  0.75000000  0.37978426
   0.75000000  0.00000000  0.37978426
   0.50000000  0.00000000  0.45992809
   0.75000000  0.75000000  0.45992809
   0.50000000  0.75000000  0.54007191
   0.75000000  0.00000000  0.54007191
   0.50000000  0.00000000  0.62021574
   0.75000000  0.75000000  0.62021574
   0.50000000  0.25000000  0.37978426
   0.75000000  0.50000000  0.37978426
   0.50000000  0.50000000  0.45992809
   0.75000000  0.25000000  0.45992809
   0.50000000  0.25000000  0.54007191
   0.75000000  0.50000000  0.54007191
   0.50000000  0.50000000  0.62021574
   0.75000000  0.25000000  0.62021574
   0.00000000  0.75000000  0.45992809
   0.25000000  0.00000000  0.45992809
   0.00000000  0.00000000  0.37978426
   0.25000000  0.75000000  0.37978426
   0.00000000  0.75000000  0.62021574
   0.25000000  0.00000000  0.62021574
   0.00000000  0.00000000  0.54007191
   0.25000000  0.75000000  0.54007191
   0.00000000  0.25000000  0.45992809
   0.25000000  0.50000000  0.45992809
   0.00000000  0.50000000  0.37978426
   0.25000000  0.25000000  0.37978426
   0.00000000  0.25000000  0.62021574
   0.25000000  0.50000000  0.62021574
   0.00000000  0.50000000  0.54007191
   0.25000000  0.25000000  0.54007191
   0.50000000  0.75000000  0.45992809
   0.75000000  0.00000000  0.45992809
   0.50000000  0.00000000  0.37978426
   0.75000000  0.75000000  0.37978426
   0.50000000  0.75000000  0.62021574
   0.75000000  0.00000000  0.62021574
   0.50000000  0.00000000  0.54007191
   0.75000000  0.75000000  0.54007191
   0.50000000  0.25000000  0.45992809
   0.75000000  0.50000000  0.45992809
   0.50000000  0.50000000  0.37978426
   0.75000000  0.25000000  0.37978426
   0.50000000  0.25000000  0.62021574
   0.75000000  0.50000000  0.62021574
   0.50000000  0.50000000  0.54007191
   0.75000000  0.25000000  0.54007191
 
 position of ions in cartesian coordinates  (Angst):
   0.00000000  6.33073849 10.00000000
   2.11024616  0.00000000 10.00000000
   0.00000000  0.00000000 12.11024616
   2.11024616  6.33073849 12.11024616
   0.00000000  6.33073849 14.22049233
   2.11024616  0.00000000 14.22049233
   0.00000000  0.00000000 16.33073849
   2.11024616  6.33073849 16.33073849
   0.00000000  2.11024616 10.00000000
   2.11024616  4.22049233 10.00000000
   0.00000000  4.22049233 12.11024616
   2.11024616  2.11024616 12.11024616
   0.00000000  2.11024616 14.22049233
   2.11024616  4.22049233 14.22049233
   0.00000000  4.22049233 16.33073849
   2.11024616  2.11024616 16.33073849
   4.22049233  6.33073849 10.00000000
   6.33073849  0.00000000 10.00000000
   4.22049233  0.00000000 12.11024616
   6.33073849  6.33073849 12.11024616
   4.22049233  6.33073849 14.22049233
   6.33073849  0.00000000 14.22049233
   4.22049233  0.00000000 16.33073849
   6.33073849  6.33073849 16.33073849
   4.22049233  2.11024616 10.00000000
   6.33073849  4.22049233 10.00000000
   4.22049233  4.22049233 12.11024616
   6.33073849  2.11024616 12.11024616
   4.22049233  2.11024616 14.22049233
   6.33073849  4.22049233 14.22049233
   4.22049233  4.22049233 16.33073849
   6.33073849  2.11024616 16.33073849
   0.00000000  6.33073849 12.11024616
   2.11024616  0.00000000 12.11024616
   0.00000000  0.00000000 10.00000000
   2.11024616  6.33073849 10.00000000
   0.00000000  6.33073849 16.33073849
   2.11024616  0.00000000 16.33073849
   0.00000000  0.00000000 14.22049233
   2.11024616  6.33073849 14.22049233
   0.00000000  2.11024616 12.11024616
   2.11024616  4.22049233 12.11024616
   0.00000000  4.22049233 10.00000000
   2.11024616  2.11024616 10.00000000
   0.00000000  2.11024616 16.33073849
   2.11024616  4.22049233 16.33073849
   0.00000000  4.22049233 14.22049233
   2.11024616  2.11024616 14.22049233
   4.22049233  6.33073849 12.11024616
   6.33073849  0.00000000 12.11024616
   4.22049233  0.00000000 10.00000000
   6.33073849  6.33073849 10.00000000
   4.22049233  6.33073849 16.33073849
   6.33073849  0.00000000 16.33073849
   4.22049233  0.00000000 14.22049233
   6.33073849  6.33073849 14.22049233
   4.22049233  2.11024616 12.11024616
   6.33073849  4.22049233 12.11024616
   4.22049233  4.22049233 10.00000000
   6.33073849  2.11024616 10.00000000
   4.22049233  2.11024616 16.33073849
   6.33073849  4.22049233 16.33073849
   4.22049233  4.22049233 14.22049233
   6.33073849  2.11024616 14.22049233
 


--------------------------------------------------------------------------------------------------------


 k-point   1 :   0.0000 0.0000 0.0000  plane waves:   62597
 k-point   2 :   0.5000 0.0000 0.0000  plane waves:   62646
 k-point   3 :   0.5000 0.5000 0.0000  plane waves:   62648

 maximum and minimum number of plane-waves per node :     31384    31251

 maximum number of plane-waves:     62648
 maximum index in each direction: 
   IXMAX=   16   IYMAX=   16   IZMAX=   52
   IXMIN=  -17   IYMIN=  -17   IZMIN=  -52


 parallel 3D FFT for wavefunctions:
    minimum data exchange during FFTs selected (reduces bandwidth)
 parallel 3D FFT for charge:
    minimum data exchange during FFTs selected (reduces bandwidth)


 total amount of memory used by VASP MPI-rank0   110851. kBytes
=======================================================================

   base      :      30000. kBytes
   nonl-proj :      51852. kBytes
   fftplans  :       8250. kBytes
   grid      :      11298. kBytes
   one-center:        259. kBytes
   wavefun   :       9192. kBytes
 
     INWAV:  cpu time      0.0000: real time      0.0000
 Broyden mixing: mesh for mixing (old mesh)
   NGX = 33   NGY = 33   NGZ =105
  (NGX  =108   NGY  =108   NGZ  =320)
  gives a total of 114345 points

 initial charge density was supplied:
 charge density of overlapping atoms calculated
 number of electron     448.0000000 magnetization 
 keeping initial charge density in first step


--------------------------------------------------------------------------------------------------------


 Maximum index for augmentation-charges          338 (set IRDMAX)


--------------------------------------------------------------------------------------------------------


 First call to EWALD:  gamma=   0.144
 Maximum number of real-space cells 4x 4x 2
 Maximum number of reciprocal cells 2x 2x 5

    FEWALD:  cpu time      0.0015: real time      0.0015


--------------------------------------- Iteration      1(   1)  ---------------------------------------


    POTLOK:  cpu time      0.0405: real time      0.0477
    SETDIJ:  cpu time      0.0876: real time      0.0895
    TRIAL :  cpu time      3.3822: real time      3.4347
    CORREC:  cpu time      0.0003: real time      0.0003
    --------------------------------------------
      LOOP:  cpu time      3.5135: real time      3.5935

 eigenvalue-minimisations  :  2280
 total energy-change (2. order) : 0.3360837E+04  (-0.2962827E+05)
 number of electron     448.0000000 magnetization 
 augmentation part      448.0000000 magnetization 

 DIPCOR: dipole corrections for dipol
 direction  3 min pos     1,
 dipolmoment           0.000000      0.000000      0.000000 electrons x Angstroem
 Tr[quadrupol]     -5964.544203

 energy correction for charged system         0.000000 eV
 dipol+quadrupol energy correction           -0.000000 eV
 added-field ion interaction         -0.000000 eV  (added to PSCEN)


 Free energy of the ion-electron system (eV)
  ---------------------------------------------------
  alpha Z        PSCENC =       709.05443561
  Ewald energy   TEWEN  =    234986.76456453
  -Hartree energ DENC   =   -269881.06473545
  -exchange      EXHF   =         0.00000000
  -V(xc)+E(xc)   XCENC  =      1727.67292136
  PAW double counting   =     31885.32831381   -35670.53061943
  entropy T*S    EENTRO =        -0.00899475
  eigenvalues    EBANDS =     -8013.82040422
  atomic energy  EATOM  =     47617.44106709
  ---------------------------------------------------
  free energy    TOTEN  =      3360.83654856 eV

  energy without entropy =     3360.84554331  energy(sigma->0) =     3360.84104594


--------------------------------------------------------------------------------------------------------




--------------------------------------- Iteration      1(   2)  ---------------------------------------


    TRIAL :  cpu time      3.2438: real time      3.2804
    CORREC:  cpu time      0.0001: real time      0.0001
    --------------------------------------------
      LOOP:  cpu time      3.2468: real time      3.2857

 eigenvalue-minimisations  :  2280
 total energy-change (2. order) :-0.3537515E+04  (-0.3526103E+04)
 number of electron     448.0000000 magnetization 
 augmentation part      448.0000000 magnetization 

 DIPCOR: dipole corrections for dipol
 direction  3 min pos     1,
 dipolmoment           0.000000      0.000000      0.000000 electrons x Angstroem
 Tr[quadrupol]     -5964.544203

 energy correction for charged system         0.000000 eV
 dipol+quadrupol energy correction           -0.000000 eV
 added-field ion interaction         -0.000000 eV  (added to PSCEN)


 Free energy of the ion-electron system (eV)
  ---------------------------------------------------
  alpha Z        PSCENC =       709.05443561
  Ewald energy   TEWEN  =    234986.76456453
  -Hartree energ DENC   =   -269881.06473545
  -exchange      EXHF   =         0.00000000
  -V(xc)+E(xc)   XCENC  =      1727.67292136
  PAW double counting   =     31885.32831381   -35670.53061943
  entropy T*S    EENTRO =        -0.00000000
  eigenvalues    EBANDS =    -11551.34411492
  atomic energy  EATOM  =     47617.44106709
  ---------------------------------------------------
  free energy    TOTEN  =      -176.67816740 eV

  energy without entropy =     -176.67816740  energy(sigma->0) =     -176.67816740


--------------------------------------------------------------------------------------------------------




--------------------------------------- Iteration      1(   3)  ---------------------------------------


    TRIAL :  cpu time      2.6677: real time      2.6815
    CORREC:  cpu time      0.0001: real time      0.0001
    --------------------------------------------
      LOOP:  cpu time      2.6697: real time      2.6857

 eigenvalue-minimisations  :  1976
 total energy-change (2. order) :-0.2375406E+03  (-0.2372243E+03)
 number of electron     448.0000000 magnetization 
 augmentation part      448.0000000 magnetization 

 DIPCOR: dipole corrections for dipol
 direction  3 min pos     1,
 dipolmoment           0.000000      0.000000      0.000000 electrons x Angstroem
 Tr[quadrupol]     -5964.544203

 energy correction for charged system         0.000000 eV
 dipol+quadrupol energy correction           -0.000000 eV
 added-field ion interaction         -0.000000 eV  (added to PSCEN)


 Free energy of the ion-electron system (eV)
  ---------------------------------------------------
  alpha Z        PSCENC =       709.05443561
  Ewald energy   TEWEN  =    234986.76456453
  -Hartree energ DENC   =   -269881.06473545
  -exchange      EXHF   =         0.00000000
  -V(xc)+E(xc)   XCENC  =      1727.67292136
  PAW double counting   =     31885.32831381   -35670.53061943
  entropy T*S    EENTRO =        -0.00000000
  eigenvalues    EBANDS =    -11788.88470506
  atomic energy  EATOM  =     47617.44106709
  ---------------------------------------------------
  free energy    TOTEN  =      -414.21875753 eV

  energy without entropy =     -414.21875753  energy(sigma->0) =     -414.21875753


--------------------------------------------------------------------------------------------------------




--------------------------------------- Iteration      1(   4)  ---------------------------------------


    TRIAL :  cpu time      4.3791: real time      4.3988
    CORREC:  cpu time      0.0001: real time      0.0001
    --------------------------------------------
      LOOP:  cpu time      4.3807: real time      4.4028

 eigenvalue-minimisations  :  2736
 total energy-change (2. order) :-0.3126416E+01  (-0.3123427E+01)
 number of electron     448.0000000 magnetization 
 augmentation part      448.0000000 magnetization 

 DIPCOR: dipole corrections for dipol
 direction  3 min pos     1,
 dipolmoment           0.000000      0.000000      0.000000 electrons x Angstroem
 Tr[quadrupol]     -5964.544203

 energy correction for charged system         0.000000 eV
 dipol+quadrupol energy correction           -0.000000 eV
 added-field ion interaction         -0.000000 eV  (added to PSCEN)


 Free energy of the ion-electron system (eV)
  ---------------------------------------------------
  alpha Z        PSCENC =       709.05443561
  Ewald energy   TEWEN  =    234986.76456453
  -Hartree energ DENC   =   -269881.06473545
  -exchange      EXHF   =         0.00000000
  -V(xc)+E(xc)   XCENC  =      1727.67292136
  PAW double counting   =     31885.32831381   -35670.53061943
  entropy T*S    EENTRO =        -0.00000000
  eigenvalues    EBANDS =    -11792.01112146
  atomic energy  EATOM  =     47617.44106709
  ---------------------------------------------------
  free energy    TOTEN  =      -417.34517393 eV

  energy without entropy =     -417.34517393  energy(sigma->0) =     -417.34517393


--------------------------------------------------------------------------------------------------------




--------------------------------------- Iteration      1(   5)  ---------------------------------------


    TRIAL :  cpu time      2.4127: real time      2.4246
    CORREC:  cpu time      0.0001: real time      0.0001
    CHARGE:  cpu time      0.0951: real time      0.0954
    --------------------------------------------
      LOOP:  cpu time      2.5096: real time      2.5238

 eigenvalue-minimisations  :  1824
 total energy-change (2. order) :-0.2914897E-01  (-0.2914875E-01)
 number of electron     447.9999793 magnetization 
 augmentation part      159.0081499 magnetization 

 DIPCOR: dipole corrections for dipol
 direction  3 min pos     1,
 dipolmoment           0.000000      0.000000      0.000000 electrons x Angstroem
 Tr[quadrupol]     -5964.544203

 energy correction for charged system         0.000000 eV
 dipol+quadrupol energy correction           -0.000000 eV
 added-field ion interaction         -0.000000 eV  (added to PSCEN)


 Free energy of the ion-electron system (eV)
  ---------------------------------------------------
  alpha Z        PSCENC =       709.05443561
  Ewald energy   TEWEN  =    234986.76456453
  -Hartree energ DENC   =   -269881.06473545
  -exchange      EXHF   =         0.00000000
  -V(xc)+E(xc)   XCENC  =      1727.67292136
  PAW double counting   =     31885.32831381   -35670.53061943
  entropy T*S    EENTRO =        -0.00000000
  eigenvalues    EBANDS =    -11792.04027043
  atomic energy  EATOM  =     47617.44106709
  ---------------------------------------------------
  free energy    TOTEN  =      -417.37432290 eV

  energy without entropy =     -417.37432290  energy(sigma->0) =     -417.37432290


--------------------------------------------------------------------------------------------------------




--------------------------------------- Iteration      1(   6)  ---------------------------------------


    POTLOK:  cpu time      0.0254: real time      0.0255
    SETDIJ:  cpu time      0.0821: real time      0.0823
    TRIAL :  cpu time      0.9475: real time      0.9563
    CORREC:  cpu time      0.4777: real time      0.4810
    CHARGE:  cpu time      0.0925: real time      0.0929
    --------------------------------------------
      LOOP:  cpu time      1.6275: real time      1.6417

 eigenvalue-minimisations  :     0
 total energy-change (2. order) : 0.1726846E+03  (-0.9594575E+02)
 number of electron     447.9999646 magnetization 
 augmentation part      156.0789646 magnetization 

 DIPCOR: dipole corrections for dipol
 direction  3 min pos     1,
 dipolmoment           0.000000      0.000000      0.015766 electrons x Angstroem
 Tr[quadrupol]     -5999.048407

 energy correction for charged system         0.000000 eV
 dipol+quadrupol energy correction           -0.000012 eV
 added-field ion interaction         -0.000000 eV  (added to PSCEN)


 Free energy of the ion-electron system (eV)
  ---------------------------------------------------
  alpha Z        PSCENC =       709.05443561
  Ewald energy   TEWEN  =    234986.76456453
  -Hartree energ DENC   =   -274254.23572668
  -exchange      EXHF   =         0.00000000
  -V(xc)+E(xc)   XCENC  =      1849.67464063
  PAW double counting   =     36309.88346362   -40054.27340612
  entropy T*S    EENTRO =        -0.00000000
  eigenvalues    EBANDS =     -7408.99871194
  atomic energy  EATOM  =     47617.44106709
  ---------------------------------------------------
  free energy    TOTEN  =      -244.68967325 eV

  energy without entropy =     -244.68967325  energy(sigma->0) =     -244.68967325


--------------------------------------------------------------------------------------------------------




--------------------------------------- Iteration      1(   7)  ---------------------------------------


    POTLOK:  cpu time      0.0259: real time      0.0260
    SETDIJ:  cpu time      0.0808: real time      0.0809
    TRIAL :  cpu time      0.9243: real time      0.9289
    CORREC:  cpu time      0.4480: real time      0.4498
    CHARGE:  cpu time      0.0888: real time      0.0892
    --------------------------------------------
      LOOP:  cpu time      1.5694: real time      1.5788

 eigenvalue-minimisations  :     0
 total energy-change (2. order) :-0.9651536E+02  (-0.6369996E+01)
 number of electron     447.9999638 magnetization 
 augmentation part      154.3282129 magnetization 

 DIPCOR: dipole corrections for dipol
 direction  3 min pos     1,
 dipolmoment           0.000000      0.000000      0.005489 electrons x Angstroem
 Tr[quadrupol]     -6006.069060

 energy correction for charged system         0.000000 eV
 dipol+quadrupol energy correction           -0.000001 eV
 added-field ion interaction         -0.000000 eV  (added to PSCEN)


 Free energy of the ion-electron system (eV)
  ---------------------------------------------------
  alpha Z        PSCENC =       709.05442699
  Ewald energy   TEWEN  =    234986.76456453
  -Hartree energ DENC   =   -272154.05884305
  -exchange      EXHF   =         0.00000000
  -V(xc)+E(xc)   XCENC  =      1783.33316848
  PAW double counting   =     35166.68469001   -38981.53962142
  entropy T*S    EENTRO =        -0.00000000
  eigenvalues    EBANDS =     -9468.88448302
  atomic energy  EATOM  =     47617.44106709
  ---------------------------------------------------
  free energy    TOTEN  =      -341.20503037 eV

  energy without entropy =     -341.20503037  energy(sigma->0) =     -341.20503037


--------------------------------------------------------------------------------------------------------




--------------------------------------- Iteration      1(   8)  ---------------------------------------


    POTLOK:  cpu time      0.0257: real time      0.0258
    SETDIJ:  cpu time      0.0807: real time      0.0810
    TRIAL :  cpu time      0.9236: real time      0.9282
    CORREC:  cpu time      0.4422: real time      0.4439
    CHARGE:  cpu time      0.0899: real time      0.0903
    --------------------------------------------
      LOOP:  cpu time      1.5642: real time      1.5731

 eigenvalue-minimisations  :     0
 total energy-change (2. order) :-0.6386979E+01  (-0.3674873E+01)
 number of electron     447.9999621 magnetization 
 augmentation part      154.4346893 magnetization 

 DIPCOR: dipole corrections for dipol
 direction  3 min pos     1,
 dipolmoment           0.000000      0.000000      0.000605 electrons x Angstroem
 Tr[quadrupol]     -6004.917163

 energy correction for charged system         0.000000 eV
 dipol+quadrupol energy correction           -0.000000 eV
 added-field ion interaction         -0.000000 eV  (added to PSCEN)


 Free energy of the ion-electron system (eV)
  ---------------------------------------------------
  alpha Z        PSCENC =       709.05443513
  Ewald energy   TEWEN  =    234986.76456453
  -Hartree energ DENC   =   -272047.25287201
  -exchange      EXHF   =         0.00000000
  -V(xc)+E(xc)   XCENC  =      1774.11227014
  PAW double counting   =     35080.28419844   -38827.97922511
  entropy T*S    EENTRO =        -0.00000000
  eigenvalues    EBANDS =     -9640.01644793
  atomic energy  EATOM  =     47617.44106709
  ---------------------------------------------------
  free energy    TOTEN  =      -347.59200970 eV

  energy without entropy =     -347.59200970  energy(sigma->0) =     -347.59200970


--------------------------------------------------------------------------------------------------------




--------------------------------------- Iteration      1(   9)  ---------------------------------------


    POTLOK:  cpu time      0.0260: real time      0.0261
    SETDIJ:  cpu time      0.0826: real time      0.0827
    TRIAL :  cpu time      0.9220: real time      0.9264
    CORREC:  cpu time      0.4412: real time      0.4426
    CHARGE:  cpu time      0.0895: real time      0.0898
    --------------------------------------------
      LOOP:  cpu time      1.5635: real time      1.5716

 eigenvalue-minimisations  :     0
 total energy-change (2. order) :-0.3648558E+01  (-0.1844447E+01)
 number of electron     447.9999615 magnetization 
 augmentation part      154.4970342 magnetization 

 DIPCOR: dipole corrections for dipol
 direction  3 min pos     1,
 dipolmoment           0.000000      0.000000     -0.001155 electrons x Angstroem
 Tr[quadrupol]     -6001.348215

 energy correction for charged system         0.000000 eV
 dipol+quadrupol energy correction           -0.000000 eV
 added-field ion interaction         -0.000000 eV  (added to PSCEN)


 Free energy of the ion-electron system (eV)
  ---------------------------------------------------
  alpha Z        PSCENC =       709.05443559
  Ewald energy   TEWEN  =    234986.76456453
  -Hartree energ DENC   =   -271949.55299823
  -exchange      EXHF   =         0.00000000
  -V(xc)+E(xc)   XCENC  =      1774.04854601
  PAW double counting   =     35026.93436471   -38805.21920246
  entropy T*S    EENTRO =        -0.00000000
  eigenvalues    EBANDS =     -9710.71134516
  atomic energy  EATOM  =     47617.44106709
  ---------------------------------------------------
  free energy    TOTEN  =      -351.24056790 eV

  energy without entropy =     -351.24056790  energy(sigma->0) =     -351.24056790


--------------------------------------------------------------------------------------------------------




--------------------------------------- Iteration      1(  10)  ---------------------------------------


    POTLOK:  cpu time      0.0259: real time      0.0260
    SETDIJ:  cpu time      0.0825: real time      0.0827
    TRIAL :  cpu time      0.9196: real time      0.9241
    CORREC:  cpu time      0.4397: real time      0.4413
    CHARGE:  cpu time      0.0909: real time      0.0913
    --------------------------------------------
      LOOP:  cpu time      1.5611: real time      1.5695

 eigenvalue-minimisations  :     0
 total energy-change (2. order) :-0.1844339E+01  (-0.7133753E+00)
 number of electron     447.9999619 magnetization 
 augmentation part      154.4091166 magnetization 

 DIPCOR: dipole corrections for dipol
 direction  3 min pos     1,
 dipolmoment           0.000000      0.000000     -0.000400 electrons x Angstroem
 Tr[quadrupol]     -5999.870114

 energy correction for charged system         0.000000 eV
 dipol+quadrupol energy correction           -0.000000 eV
 added-field ion interaction          0.000000 eV  (added to PSCEN)


 Free energy of the ion-electron system (eV)
  ---------------------------------------------------
  alpha Z        PSCENC =       709.05443555
  Ewald energy   TEWEN  =    234986.76456453
  -Hartree energ DENC   =   -271820.84945122
  -exchange      EXHF   =         0.00000000
  -V(xc)+E(xc)   XCENC  =      1772.88802224
  PAW double counting   =     34915.43898568   -38705.32424303
  entropy T*S    EENTRO =        -0.00000000
  eigenvalues    EBANDS =     -9828.49828727
  atomic energy  EATOM  =     47617.44106709
  ---------------------------------------------------
  free energy    TOTEN  =      -353.08490642 eV

  energy without entropy =     -353.08490642  energy(sigma->0) =     -353.08490642


--------------------------------------------------------------------------------------------------------




--------------------------------------- Iteration      1(  11)  ---------------------------------------


    POTLOK:  cpu time      0.0258: real time      0.0259
    SETDIJ:  cpu time      0.0818: real time      0.0820
    TRIAL :  cpu time      0.9175: real time      0.9222
    CORREC:  cpu time      0.4401: real time      0.4416
    CHARGE:  cpu time      0.0904: real time      0.0908
    --------------------------------------------
      LOOP:  cpu time      1.5572: real time      1.5664

 eigenvalue-minimisations  :     0
 total energy-change (2. order) :-0.7138995E+00  (-0.2221891E+00)
 number of electron     447.9999624 magnetization 
 augmentation part      154.4631157 magnetization 

 DIPCOR: dipole corrections for dipol
 direction  3 min pos     1,
 dipolmoment           0.000000      0.000000     -0.000571 electrons x Angstroem
 Tr[quadrupol]     -5999.723724

 energy correction for charged system         0.000000 eV
 dipol+quadrupol energy correction           -0.000000 eV
 added-field ion interaction          0.000000 eV  (added to PSCEN)


 Free energy of the ion-electron system (eV)
  ---------------------------------------------------
  alpha Z        PSCENC =       709.05443560
  Ewald energy   TEWEN  =    234986.76456453
  -Hartree energ DENC   =   -271742.70799447
  -exchange      EXHF   =         0.00000000
  -V(xc)+E(xc)   XCENC  =      1771.51087287
  PAW double counting   =     34836.03761258   -38616.82099535
  entropy T*S    EENTRO =        -0.00000000
  eigenvalues    EBANDS =     -9915.07836881
  atomic energy  EATOM  =     47617.44106709
  ---------------------------------------------------
  free energy    TOTEN  =      -353.79880594 eV

  energy without entropy =     -353.79880594  energy(sigma->0) =     -353.79880594


--------------------------------------------------------------------------------------------------------




--------------------------------------- Iteration      1(  12)  ---------------------------------------


    POTLOK:  cpu time      0.0265: real time      0.0266
    SETDIJ:  cpu time      0.0818: real time      0.0820
    TRIAL :  cpu time      0.9214: real time      0.9258
    CORREC:  cpu time      0.4405: real time      0.4422
    CHARGE:  cpu time      0.0905: real time      0.0908
    --------------------------------------------
      LOOP:  cpu time      1.5619: real time      1.5715

 eigenvalue-minimisations  :     0
 total energy-change (2. order) :-0.2221872E+00  (-0.6854243E-01)
 number of electron     447.9999625 magnetization 
 augmentation part      154.5609432 magnetization 

 DIPCOR: dipole corrections for dipol
 direction  3 min pos     1,
 dipolmoment           0.000000      0.000000     -0.000895 electrons x Angstroem
 Tr[quadrupol]     -5999.822078

 energy correction for charged system         0.000000 eV
 dipol+quadrupol energy correction           -0.000000 eV
 added-field ion interaction          0.000000 eV  (added to PSCEN)


 Free energy of the ion-electron system (eV)
  ---------------------------------------------------
  alpha Z        PSCENC =       709.05443560
  Ewald energy   TEWEN  =    234986.76456453
  -Hartree energ DENC   =   -271729.90244223
  -exchange      EXHF   =         0.00000000
  -V(xc)+E(xc)   XCENC  =      1771.37522835
  PAW double counting   =     34815.24808837   -38593.59210546
  entropy T*S    EENTRO =        -0.00000000
  eigenvalues    EBANDS =     -9930.40982939
  atomic energy  EATOM  =     47617.44106709
  ---------------------------------------------------
  free energy    TOTEN  =      -354.02099313 eV

  energy without entropy =     -354.02099313  energy(sigma->0) =     -354.02099313


--------------------------------------------------------------------------------------------------------




--------------------------------------- Iteration      1(  13)  ---------------------------------------


    POTLOK:  cpu time      0.0267: real time      0.0268
    SETDIJ:  cpu time      0.0819: real time      0.0822
    TRIAL :  cpu time      0.9091: real time      0.9138
    CORREC:  cpu time      0.4356: real time      0.4372
    CHARGE:  cpu time      0.0895: real time      0.0900
    --------------------------------------------
      LOOP:  cpu time      1.5450: real time      1.5539

 eigenvalue-minimisations  :     0
 total energy-change (2. order) :-0.6853628E-01  (-0.2569964E-01)
 number of electron     447.9999625 magnetization 
 augmentation part      154.5962996 magnetization 

 DIPCOR: dipole corrections for dipol
 direction  3 min pos     1,
 dipolmoment           0.000000      0.000000     -0.000722 electrons x Angstroem
 Tr[quadrupol]     -5999.905481

 energy correction for charged system         0.000000 eV
 dipol+quadrupol energy correction           -0.000000 eV
 added-field ion interaction          0.000000 eV  (added to PSCEN)


 Free energy of the ion-electron system (eV)
  ---------------------------------------------------
  alpha Z        PSCENC =       709.05443557
  Ewald energy   TEWEN  =    234986.76456453
  -Hartree energ DENC   =   -271736.72362791
  -exchange      EXHF   =         0.00000000
  -V(xc)+E(xc)   XCENC  =      1771.56253894
  PAW double counting   =     34815.11994085   -38596.52902857
  entropy T*S    EENTRO =        -0.00000000
  eigenvalues    EBANDS =     -9920.77941993
  atomic energy  EATOM  =     47617.44106709
  ---------------------------------------------------
  free energy    TOTEN  =      -354.08952942 eV

  energy without entropy =     -354.08952942  energy(sigma->0) =     -354.08952942


--------------------------------------------------------------------------------------------------------




--------------------------------------- Iteration      1(  14)  ---------------------------------------


    POTLOK:  cpu time      0.0268: real time      0.0269
    SETDIJ:  cpu time      0.0800: real time      0.0802
    TRIAL :  cpu time      0.9041: real time      0.9267
    CORREC:  cpu time      0.4364: real time      0.4406
    CHARGE:  cpu time      0.0913: real time      0.0916
    --------------------------------------------
      LOOP:  cpu time      1.5405: real time      1.5701

 eigenvalue-minimisations  :     0
 total energy-change (2. order) :-0.2569446E-01  (-0.1050490E-01)
 number of electron     447.9999625 magnetization 
 augmentation part      154.5858053 magnetization 

 DIPCOR: dipole corrections for dipol
 direction  3 min pos     1,
 dipolmoment           0.000000      0.000000     -0.000257 electrons x Angstroem
 Tr[quadrupol]     -6000.010911

 energy correction for charged system         0.000000 eV
 dipol+quadrupol energy correction           -0.000000 eV
 added-field ion interaction          0.000000 eV  (added to PSCEN)


 Free energy of the ion-electron system (eV)
  ---------------------------------------------------
  alpha Z        PSCENC =       709.05443559
  Ewald energy   TEWEN  =    234986.76456453
  -Hartree energ DENC   =   -271740.55842101
  -exchange      EXHF   =         0.00000000
  -V(xc)+E(xc)   XCENC  =      1771.57811689
  PAW double counting   =     34817.55074999   -38600.26972660
  entropy T*S    EENTRO =        -0.00000000
  eigenvalues    EBANDS =     -9915.67601036
  atomic energy  EATOM  =     47617.44106709
  ---------------------------------------------------
  free energy    TOTEN  =      -354.11522388 eV

  energy without entropy =     -354.11522388  energy(sigma->0) =     -354.11522388


--------------------------------------------------------------------------------------------------------




--------------------------------------- Iteration      1(  15)  ---------------------------------------


    POTLOK:  cpu time      0.0273: real time      0.0274
    SETDIJ:  cpu time      0.0819: real time      0.0821
    TRIAL :  cpu time      0.9163: real time      0.9207
    CORREC:  cpu time      0.4402: real time      0.4416
    CHARGE:  cpu time      0.0899: real time      0.0903
    --------------------------------------------
      LOOP:  cpu time      1.5573: real time      1.5661

 eigenvalue-minimisations  :     0
 total energy-change (2. order) :-0.1050589E-01  (-0.4659562E-02)
 number of electron     447.9999625 magnetization 
 augmentation part      154.5760887 magnetization 

 DIPCOR: dipole corrections for dipol
 direction  3 min pos     1,
 dipolmoment           0.000000      0.000000      0.000066 electrons x Angstroem
 Tr[quadrupol]     -6000.130577

 energy correction for charged system         0.000000 eV
 dipol+quadrupol energy correction           -0.000000 eV
 added-field ion interaction         -0.000000 eV  (added to PSCEN)


 Free energy of the ion-electron system (eV)
  ---------------------------------------------------
  alpha Z        PSCENC =       709.05443561
  Ewald energy   TEWEN  =    234986.76456453
  -Hartree energ DENC   =   -271745.26394043
  -exchange      EXHF   =         0.00000000
  -V(xc)+E(xc)   XCENC  =      1771.60537809
  PAW double counting   =     34822.13650563   -38604.08308638
  entropy T*S    EENTRO =        -0.00000000
  eigenvalues    EBANDS =     -9911.78065391
  atomic energy  EATOM  =     47617.44106709
  ---------------------------------------------------
  free energy    TOTEN  =      -354.12572976 eV

  energy without entropy =     -354.12572976  energy(sigma->0) =     -354.12572976


--------------------------------------------------------------------------------------------------------




--------------------------------------- Iteration      1(  16)  ---------------------------------------


    POTLOK:  cpu time      0.0274: real time      0.0275
    SETDIJ:  cpu time      0.0813: real time      0.0815
    TRIAL :  cpu time      0.9126: real time      0.9170
    CORREC:  cpu time      0.4365: real time      0.4380
    CHARGE:  cpu time      0.0908: real time      0.0911
    --------------------------------------------
      LOOP:  cpu time      1.5503: real time      1.5590

 eigenvalue-minimisations  :     0
 total energy-change (2. order) :-0.4656429E-02  (-0.1716344E-02)
 number of electron     447.9999625 magnetization 
 augmentation part      154.5743808 magnetization 

 DIPCOR: dipole corrections for dipol
 direction  3 min pos     1,
 dipolmoment           0.000000      0.000000      0.000072 electrons x Angstroem
 Tr[quadrupol]     -6000.206919

 energy correction for charged system         0.000000 eV
 dipol+quadrupol energy correction           -0.000000 eV
 added-field ion interaction          0.000000 eV  (added to PSCEN)


 Free energy of the ion-electron system (eV)
  ---------------------------------------------------
  alpha Z        PSCENC =       709.05443561
  Ewald energy   TEWEN  =    234986.76456453
  -Hartree energ DENC   =   -271751.10189513
  -exchange      EXHF   =         0.00000000
  -V(xc)+E(xc)   XCENC  =      1771.68717685
  PAW double counting   =     34827.27290918   -38608.79461351
  entropy T*S    EENTRO =        -0.00000000
  eigenvalues    EBANDS =     -9906.45403081
  atomic energy  EATOM  =     47617.44106709
  ---------------------------------------------------
  free energy    TOTEN  =      -354.13038619 eV

  energy without entropy =     -354.13038619  energy(sigma->0) =     -354.13038619


--------------------------------------------------------------------------------------------------------




--------------------------------------- Iteration      1(  17)  ---------------------------------------


    POTLOK:  cpu time      0.0277: real time      0.0278
    SETDIJ:  cpu time      0.0815: real time      0.0817
    TRIAL :  cpu time      0.9103: real time      0.9148
    CORREC:  cpu time      0.4368: real time      0.4386
    CHARGE:  cpu time      0.0901: real time      0.0906
    --------------------------------------------
      LOOP:  cpu time      1.5481: real time      1.5575

 eigenvalue-minimisations  :     0
 total energy-change (2. order) :-0.1713139E-02  (-0.5809446E-03)
 number of electron     447.9999625 magnetization 
 augmentation part      154.5746635 magnetization 

 DIPCOR: dipole corrections for dipol
 direction  3 min pos     1,
 dipolmoment           0.000000      0.000000      0.000024 electrons x Angstroem
 Tr[quadrupol]     -6000.234835

 energy correction for charged system         0.000000 eV
 dipol+quadrupol energy correction           -0.000000 eV
 added-field ion interaction         -0.000000 eV  (added to PSCEN)


 Free energy of the ion-electron system (eV)
  ---------------------------------------------------
  alpha Z        PSCENC =       709.05443561
  Ewald energy   TEWEN  =    234986.76456453
  -Hartree energ DENC   =   -271753.77310460
  -exchange      EXHF   =         0.00000000
  -V(xc)+E(xc)   XCENC  =      1771.71743807
  PAW double counting   =     34830.30073522   -38612.01499361
  entropy T*S    EENTRO =        -0.00000000
  eigenvalues    EBANDS =     -9903.62224165
  atomic energy  EATOM  =     47617.44106709
  ---------------------------------------------------
  free energy    TOTEN  =      -354.13209933 eV

  energy without entropy =     -354.13209933  energy(sigma->0) =     -354.13209933


--------------------------------------------------------------------------------------------------------




--------------------------------------- Iteration      1(  18)  ---------------------------------------


    POTLOK:  cpu time      0.0281: real time      0.0282
    SETDIJ:  cpu time      0.0810: real time      0.0812
    TRIAL :  cpu time      0.9150: real time      0.9195
    CORREC:  cpu time      0.4354: real time      0.4368
    CHARGE:  cpu time      0.0908: real time      0.0911
    --------------------------------------------
      LOOP:  cpu time      1.5519: real time      1.5607

 eigenvalue-minimisations  :     0
 total energy-change (2. order) :-0.5800366E-03  (-0.1880139E-03)
 number of electron     447.9999625 magnetization 
 augmentation part      154.5746819 magnetization 

 DIPCOR: dipole corrections for dipol
 direction  3 min pos     1,
 dipolmoment           0.000000      0.000000      0.000040 electrons x Angstroem
 Tr[quadrupol]     -6000.236306

 energy correction for charged system         0.000000 eV
 dipol+quadrupol energy correction           -0.000000 eV
 added-field ion interaction          0.000000 eV  (added to PSCEN)


 Free energy of the ion-electron system (eV)
  ---------------------------------------------------
  alpha Z        PSCENC =       709.05443561
  Ewald energy   TEWEN  =    234986.76456453
  -Hartree energ DENC   =   -271754.75453207
  -exchange      EXHF   =         0.00000000
  -V(xc)+E(xc)   XCENC  =      1771.73338612
  PAW double counting   =     34832.47493511   -38614.24432884
  entropy T*S    EENTRO =        -0.00000000
  eigenvalues    EBANDS =     -9902.60220693
  atomic energy  EATOM  =     47617.44106709
  ---------------------------------------------------
  free energy    TOTEN  =      -354.13267937 eV

  energy without entropy =     -354.13267937  energy(sigma->0) =     -354.13267937


--------------------------------------------------------------------------------------------------------




--------------------------------------- Iteration      1(  19)  ---------------------------------------


    POTLOK:  cpu time      0.0273: real time      0.0274
    SETDIJ:  cpu time      0.0808: real time      0.0810
    TRIAL :  cpu time      0.9168: real time      0.9214
    CORREC:  cpu time      0.4383: real time      0.4398
    CHARGE:  cpu time      0.0902: real time      0.0905
    --------------------------------------------
      LOOP:  cpu time      1.5555: real time      1.5643

 eigenvalue-minimisations  :     0
 total energy-change (2. order) :-0.1877333E-03  (-0.6890042E-04)
 number of electron     447.9999625 magnetization 
 augmentation part      154.5740468 magnetization 

 DIPCOR: dipole corrections for dipol
 direction  3 min pos     1,
 dipolmoment           0.000000      0.000000      0.000035 electrons x Angstroem
 Tr[quadrupol]     -6000.224828

 energy correction for charged system         0.000000 eV
 dipol+quadrupol energy correction           -0.000000 eV
 added-field ion interaction          0.000000 eV  (added to PSCEN)


 Free energy of the ion-electron system (eV)
  ---------------------------------------------------
  alpha Z        PSCENC =       709.05443561
  Ewald energy   TEWEN  =    234986.76456453
  -Hartree energ DENC   =   -271754.80281843
  -exchange      EXHF   =         0.00000000
  -V(xc)+E(xc)   XCENC  =      1771.74567181
  PAW double counting   =     34833.37291473   -38615.06934154
  entropy T*S    EENTRO =        -0.00000000
  eigenvalues    EBANDS =     -9902.63936091
  atomic energy  EATOM  =     47617.44106709
  ---------------------------------------------------
  free energy    TOTEN  =      -354.13286710 eV

  energy without entropy =     -354.13286710  energy(sigma->0) =     -354.13286710


--------------------------------------------------------------------------------------------------------




--------------------------------------- Iteration      1(  20)  ---------------------------------------


    POTLOK:  cpu time      0.0275: real time      0.0276
    SETDIJ:  cpu time      0.0833: real time      0.0835
    TRIAL :  cpu time      0.9110: real time      0.9155
    CORREC:  cpu time      0.4348: real time      0.4365
    CHARGE:  cpu time      0.0912: real time      0.0916
    --------------------------------------------
      LOOP:  cpu time      1.5495: real time      1.5588

 eigenvalue-minimisations  :     0
 total energy-change (2. order) :-0.6814397E-04  (-0.2382105E-04)
 number of electron     447.9999625 magnetization 
 augmentation part      154.5739391 magnetization 

 DIPCOR: dipole corrections for dipol
 direction  3 min pos     1,
 dipolmoment           0.000000      0.000000      0.000005 electrons x Angstroem
 Tr[quadrupol]     -6000.214218

 energy correction for charged system         0.000000 eV
 dipol+quadrupol energy correction           -0.000000 eV
 added-field ion interaction          0.000000 eV  (added to PSCEN)


 Free energy of the ion-electron system (eV)
  ---------------------------------------------------
  alpha Z        PSCENC =       709.05443561
  Ewald energy   TEWEN  =    234986.76456453
  -Hartree energ DENC   =   -271754.06245549
  -exchange      EXHF   =         0.00000000
  -V(xc)+E(xc)   XCENC  =      1771.73848181
  PAW double counting   =     34832.78027895   -38614.45334504
  entropy T*S    EENTRO =        -0.00000000
  eigenvalues    EBANDS =     -9903.39596271
  atomic energy  EATOM  =     47617.44106709
  ---------------------------------------------------
  free energy    TOTEN  =      -354.13293525 eV

  energy without entropy =     -354.13293525  energy(sigma->0) =     -354.13293525


--------------------------------------------------------------------------------------------------------




--------------------------------------- Iteration      1(  21)  ---------------------------------------


    POTLOK:  cpu time      0.0276: real time      0.0277
    SETDIJ:  cpu time      0.0821: real time      0.0824
    TRIAL :  cpu time      0.9083: real time      0.9132
[...]
    290       7.6584      0.00000
    291       7.6620      0.00000
    292       7.7065      0.00000
    293       7.7431      0.00000
    294       7.7786      0.00000
    295       7.7916      0.00000
    296       7.8074      0.00000
    297       7.9232      0.00000
    298       7.9272      0.00000
    299       7.9446      0.00000
    300       7.9586      0.00000
    301       8.0440      0.00000
    302       8.0468      0.00000
    303       8.0474      0.00000
    304       8.0479      0.00000


--------------------------------------------------------------------------------------------------------


 soft charge-density along one line, spin component           1
         0         1         2         3         4         5         6         7         8         9
 total charge-density along one line
 
 pseudopotential strength for first ion, spin component:           1
-52.081   0.000   0.000   7.378  -0.000  -0.000  -0.000   0.000
  0.000 -52.136   0.000  -0.000   7.408  -0.000  -0.034   0.084
  0.000   0.000 -52.081  -0.000  -0.000   7.378   0.000  -0.000
  7.378  -0.000  -0.000   4.208   0.000  -0.000  -0.000   0.000
 -0.000   7.408  -0.000   0.000   4.223   0.000  -0.007   0.014
 -0.000  -0.000   7.378  -0.000   0.000   4.208   0.000  -0.000
 -0.000  -0.034   0.000  -0.000  -0.007   0.000   3.001 -11.117
  0.000   0.084  -0.000   0.000   0.014  -0.000 -11.117  46.461
 -0.000   0.000   0.000   0.000  -0.000  -0.000  -0.000   0.000
  0.009   0.000   0.000  -0.011  -0.000  -0.000  -0.000   0.000
 -0.000   0.008   0.000   0.000  -0.025  -0.000   0.012  -0.025
  0.000  -0.000   0.009  -0.000   0.000  -0.011  -0.000   0.000
 -0.000   0.000  -0.000   0.000   0.000   0.000  -0.000   0.000
 total augmentation occupancy for first ion, spin component:           1
  2.001  -0.000   0.000  -0.008   0.000   0.000  -0.000   0.000   0.000  -0.008   0.000   0.000   0.000
 -0.000   2.002   0.000  -0.000  -0.002   0.000   0.001   0.005   0.000  -0.000  -0.014  -0.000   0.000
  0.000   0.000   2.001   0.000   0.000  -0.008   0.000   0.000  -0.000  -0.000  -0.000  -0.008   0.000
 -0.008  -0.000   0.000   0.076   0.000   0.000  -0.000   0.000   0.000   0.001  -0.000  -0.000   0.000
  0.000  -0.002   0.000   0.000   0.047   0.000   0.040   0.001   0.000   0.000   0.026   0.000  -0.000
  0.000   0.000  -0.008   0.000   0.000   0.076   0.000  -0.000  -0.000  -0.000   0.000   0.001  -0.000
 -0.000   0.001   0.000  -0.000   0.040   0.000   0.816   0.014  -0.000   0.000  -0.040  -0.000   0.000
  0.000   0.005   0.000   0.000   0.001  -0.000   0.014   0.000   0.000   0.000  -0.001  -0.000   0.000
  0.000   0.000  -0.000   0.000   0.000  -0.000  -0.000   0.000   0.013   0.000   0.000   0.000   0.000
 -0.008  -0.000  -0.000   0.001   0.000  -0.000   0.000   0.000   0.000   0.011  -0.000   0.000   0.000
  0.000  -0.014  -0.000  -0.000   0.026   0.000  -0.040  -0.001   0.000  -0.000   0.031  -0.000  -0.000
  0.000  -0.000  -0.008  -0.000   0.000   0.001  -0.000  -0.000   0.000   0.000  -0.000   0.011   0.000
  0.000   0.000   0.000   0.000  -0.000  -0.000   0.000   0.000   0.000   0.000  -0.000   0.000   0.052


------------------------ aborting loop because EDIFF is reached ----------------------------------------


    FORLOC:  cpu time      0.0015: real time      0.0015
    FORNL :  cpu time      0.5085: real time      0.5111
    STRESS:  cpu time      2.5808: real time      2.5922
    FORCOR:  cpu time      0.0242: real time      0.0243
    OFIELD:  cpu time      0.0000: real time      0.0000
    FORVDW:  cpu time      1.2050: real time      1.2079

  FORCE on cell =-STRESS in cart. coord.  units (eV):
  Direction    XX          YY          ZZ          XY          YZ          ZX
  --------------------------------------------------------------------------------------
  Alpha Z   709.05444   709.05444   709.05444
  Ewald  254558.42994254558.42994************    -0.00000     0.00000     0.00000
  Hartree264204.23045264204.23045************    -0.00000    -0.00000    -0.00000
  E(xc)   -2465.28994 -2465.28994 -2473.60010     0.00000    -0.00000    -0.00000
  Local  ************************529193.19048     0.00000     0.00000     0.00000
  n-local -2794.68541 -2795.50268 -2816.13632    -0.00000    -0.00000    -0.00000
  augment  1046.58337  1046.58337  1037.00187     0.00000     0.00000     0.00000
  Kinetic  7307.97928  7310.58543  7349.52270     0.00000    -0.00000     0.00000
  Fock        0.00000     0.00000     0.00000     0.00000     0.00000     0.00000
  vdW       -21.47981   -21.47998   -16.12291     0.00000    -0.00000    -0.00000
  -------------------------------------------------------------------------------------
  Total     -26.39586   -26.39586    -1.62512     0.00000     0.00000     0.00000
  in kB     -22.54224   -22.54224    -1.38786     0.00000     0.00000     0.00000
  external pressure =      -15.49 kB  Pullay stress =        0.00 kB


 VOLUME and BASIS-vectors are now :
 -----------------------------------------------------------------------------
  energy-cutoff  :      600.00
  volume of cell :     1876.07
      direct lattice vectors                 reciprocal lattice vectors
     8.440984654  0.000000000  0.000000000     0.118469591  0.000000000  0.000000000
     0.000000000  8.440984654  0.000000000     0.000000000  0.118469591  0.000000000
     0.000000000  0.000000000 26.330738491     0.000000000  0.000000000  0.037978426

  length of vectors
     8.440984654  8.440984654 26.330738491     0.118469591  0.118469591  0.037978426


 FORCES acting on ions:
    Electron-Ion                     Ewald-Force                    Non-Local-Force
 -----------------------------------------------------------------------------------------------
   -.589E-13 0.163E-11 0.232E+04   -.799E-14 -.254E-13 -.232E+04   -.250E-24 0.246E-26 -.715E+01
   0.266E-12 0.502E-12 0.232E+04   -.995E-14 0.577E-14 -.232E+04   -.445E-24 -.409E-24 -.715E+01
   -.661E-13 0.162E-12 0.769E+03   0.186E-10 -.186E-10 -.770E+03   0.414E-24 -.151E-23 0.518E+00
   0.351E-12 0.235E-11 0.769E+03   -.185E-10 0.186E-10 -.770E+03   -.145E-23 -.351E-24 0.518E+00
   -.846E-13 0.151E-11 -.777E+03   0.190E-11 0.190E-11 0.777E+03   0.195E-23 0.614E-23 -.216E+00
   0.340E-12 0.505E-14 -.777E+03   -.176E-11 -.179E-11 0.777E+03   -.951E-23 -.260E-23 -.216E+00
   -.448E-13 -.391E-12 -.231E+04   0.497E-12 -.558E-12 0.230E+04   -.660E-23 -.342E-23 0.607E+01
   0.294E-12 0.246E-12 -.231E+04   -.516E-12 0.497E-12 0.230E+04   -.106E-23 -.368E-23 0.607E+01
   -.618E-13 0.916E-12 0.232E+04   -.397E-11 0.210E-10 -.232E+04   0.421E-24 0.195E-24 -.715E+01
   0.275E-12 0.119E-11 0.232E+04   0.395E-11 -.210E-10 -.232E+04   -.363E-25 0.137E-25 -.715E+01
   -.818E-13 0.152E-11 0.769E+03   0.204E-10 -.355E-14 -.770E+03   0.128E-24 0.570E-24 0.518E+00
   0.358E-12 0.166E-12 0.769E+03   -.203E-10 -.389E-13 -.770E+03   -.182E-23 0.561E-24 0.518E+00
   -.768E-13 0.375E-12 -.777E+03   0.381E-11 0.247E-13 0.777E+03   -.372E-23 0.102E-22 -.216E+00
   0.344E-12 0.592E-12 -.777E+03   -.366E-11 0.302E-13 0.777E+03   -.141E-22 -.923E-24 -.216E+00
   -.386E-13 0.258E-12 -.231E+04   0.760E-12 -.711E-14 0.230E+04   0.756E-24 -.253E-23 0.607E+01
   0.288E-12 0.184E-12 -.231E+04   -.789E-12 -.213E-13 0.230E+04   0.521E-23 0.359E-23 0.607E+01
   0.809E-12 0.393E-11 0.232E+04   0.249E-10 -.489E-13 -.232E+04   0.122E-24 -.510E-25 -.715E+01
   0.122E-11 0.485E-12 0.232E+04   -.249E-10 -.799E-14 -.232E+04   -.469E-24 0.124E-24 -.715E+01
   0.818E-12 0.164E-12 0.769E+03   -.169E-11 -.186E-10 -.770E+03   -.374E-24 -.132E-23 0.518E+00
   0.123E-11 -.118E-12 0.769E+03   0.184E-11 0.186E-10 -.770E+03   0.116E-23 -.976E-25 0.518E+00
   0.816E-12 0.478E-11 -.777E+03   -.180E-11 0.187E-11 0.777E+03   -.186E-23 0.446E-23 -.216E+00
   0.125E-11 -.177E-13 -.777E+03   0.195E-11 -.185E-11 0.777E+03   0.834E-23 -.478E-23 -.216E+00
   0.829E-12 -.406E-12 -.231E+04   -.263E-12 -.558E-12 0.230E+04   -.217E-24 0.324E-24 0.607E+01
   0.120E-11 0.148E-11 -.231E+04   0.295E-12 0.445E-12 0.230E+04   -.588E-24 -.777E-24 0.607E+01
   0.805E-12 -.471E-12 0.232E+04   0.210E-10 0.210E-10 -.232E+04   0.116E-24 0.121E-24 -.715E+01
   0.122E-11 0.190E-11 0.232E+04   -.210E-10 -.210E-10 -.232E+04   -.320E-24 0.336E-24 -.715E+01
   0.836E-12 0.192E-11 0.769E+03   0.107E-13 -.355E-14 -.770E+03   0.137E-24 -.526E-25 0.518E+00
   0.124E-11 0.561E-12 0.769E+03   -.388E-13 -.460E-13 -.770E+03   0.140E-23 0.823E-24 0.518E+00
   0.818E-12 -.153E-11 -.777E+03   0.284E-13 -.137E-15 0.777E+03   -.617E-23 -.297E-23 -.216E+00
   0.124E-11 0.763E-12 -.777E+03   0.143E-12 0.000E+00 0.777E+03   0.424E-23 -.797E-23 -.216E+00
   0.815E-12 0.721E-12 -.231E+04   0.711E-14 -.391E-13 0.230E+04   0.144E-23 -.327E-23 0.607E+01
   0.120E-11 0.756E-12 -.231E+04   0.183E-13 -.496E-13 0.230E+04   -.181E-23 0.127E-23 0.607E+01
   -.103E-12 0.825E-12 0.577E+03   -.124E-13 0.249E-13 -.576E+03   -.267E-23 0.241E-23 -.995E-01
   0.894E-13 -.172E-12 0.577E+03   -.653E-13 0.462E-13 -.576E+03   0.531E-24 -.554E-24 -.995E-01
   -.626E-13 0.236E-13 0.175E+04   -.104E-10 0.105E-10 -.175E+04   0.654E-25 0.261E-24 0.341E+01
   0.574E-13 0.751E-12 0.175E+04   0.104E-10 -.105E-10 -.175E+04   -.112E-23 0.177E-24 0.341E+01
   -.484E-13 0.451E-12 -.175E+04   0.313E-12 0.295E-12 0.176E+04   -.332E-23 -.189E-24 -.498E+01
   0.620E-13 -.330E-12 -.175E+04   -.234E-12 -.255E-12 0.176E+04   -.798E-23 -.700E-23 -.498E+01
   -.561E-13 -.564E-13 -.576E+03   -.121E-12 -.711E-13 0.576E+03   -.258E-24 -.170E-23 0.286E+00
   0.124E-12 0.448E-12 -.576E+03   -.136E-12 -.496E-13 0.576E+03   -.219E-23 -.863E-23 0.286E+00
   -.799E-13 0.323E-12 0.577E+03   0.995E-12 -.105E-10 -.576E+03   -.162E-23 0.839E-24 -.995E-01
   0.112E-12 -.464E-12 0.577E+03   -.100E-11 0.105E-10 -.576E+03   0.220E-23 0.113E-23 -.995E-01
   -.700E-13 0.283E-12 0.175E+04   -.116E-10 -.249E-12 -.175E+04   0.227E-23 -.725E-26 0.341E+01
   0.579E-13 0.707E-13 0.175E+04   0.116E-10 0.298E-12 -.175E+04   0.126E-24 -.135E-23 0.341E+01
   -.505E-13 -.542E-12 -.175E+04   0.455E-12 -.513E-14 0.176E+04   -.241E-23 -.102E-23 -.498E+01
   0.625E-13 -.444E-12 -.175E+04   -.355E-12 0.195E-13 0.176E+04   -.254E-23 -.119E-23 -.498E+01
   -.721E-13 0.464E-12 -.576E+03   -.711E-13 -.426E-13 0.576E+03   0.571E-23 0.124E-23 0.286E+00
   0.124E-12 0.317E-12 -.576E+03   -.142E-12 -.639E-13 0.576E+03   0.223E-23 0.886E-23 0.286E+00
   0.283E-12 0.273E-11 0.577E+03   -.115E-10 0.284E-13 -.576E+03   0.189E-24 0.594E-24 -.995E-01
   0.490E-12 -.172E-12 0.577E+03   0.115E-10 0.568E-13 -.576E+03   -.644E-24 -.189E-23 -.995E-01
   0.252E-12 0.421E-13 0.175E+04   0.141E-11 0.105E-10 -.175E+04   0.148E-23 0.319E-24 0.341E+01
   0.449E-12 -.168E-13 0.175E+04   -.142E-11 -.105E-10 -.175E+04   0.276E-24 0.125E-24 0.341E+01
   0.285E-12 0.184E-11 -.175E+04   -.139E-12 0.319E-12 0.176E+04   -.137E-23 0.420E-24 -.498E+01
   0.462E-12 -.313E-12 -.175E+04   0.177E-12 -.242E-12 0.176E+04   0.107E-23 0.398E-24 -.498E+01
   0.259E-12 -.387E-13 -.576E+03   -.995E-13 -.568E-13 0.576E+03   -.639E-23 0.170E-23 0.286E+00
   0.496E-12 0.641E-12 -.576E+03   -.135E-12 -.499E-13 0.576E+03   -.153E-23 -.580E-23 0.286E+00
   0.258E-12 -.395E-11 0.577E+03   -.104E-10 -.105E-10 -.576E+03   -.118E-23 -.166E-23 -.995E-01
   0.469E-12 -.254E-11 0.577E+03   0.105E-10 0.105E-10 -.576E+03   -.520E-25 -.780E-24 -.995E-01
   0.250E-12 0.251E-12 0.175E+04   0.311E-12 -.260E-12 -.175E+04   0.668E-24 -.974E-24 0.341E+01
   0.455E-12 0.320E-12 0.175E+04   -.282E-12 0.304E-12 -.175E+04   0.477E-24 -.227E-24 0.341E+01
   0.283E-12 -.145E-11 -.175E+04   0.213E-13 0.214E-13 0.176E+04   -.298E-23 -.305E-24 -.498E+01
   0.462E-12 -.128E-11 -.175E+04   0.218E-13 0.284E-13 0.176E+04   -.197E-24 -.115E-23 -.498E+01
   0.270E-12 0.202E-12 -.576E+03   -.128E-12 -.426E-13 0.576E+03   -.615E-23 -.581E-23 0.286E+00
   0.498E-12 0.188E-11 -.576E+03   -.855E-13 -.496E-13 0.576E+03   0.650E-24 -.699E-24 0.286E+00
 -----------------------------------------------------------------------------------------------
   0.249E-10 0.269E-10 0.173E+02   0.123E-12 -.282E-12 0.637E-11   -.516E-22 -.304E-22 -.173E+02
 
 
 POSITION                                       TOTAL-FORCE (eV/Angst)
 -----------------------------------------------------------------------------------
      0.00000      6.33074     10.00000         0.000000      0.000000      0.346601
      2.11025      0.00000     10.00000        -0.000000     -0.000000      0.346601
      0.00000      0.00000     12.11025         0.000000     -0.000000      0.071522
      2.11025      6.33074     12.11025         0.000000     -0.000000      0.071522
      0.00000      6.33074     14.23564         0.000000     -0.000000     -0.006981
      2.11025     -0.00000     14.23564         0.000000      0.000000     -0.006981
     -0.00000     -0.00000     16.33941         0.000000      0.000000      0.005134
      2.11025      6.33074     16.33941         0.000000     -0.000000      0.005134
      0.00000      2.11025     10.00000        -0.000000      0.000000      0.346601
      2.11025      4.22049     10.00000         0.000000     -0.000000      0.346601
      0.00000      4.22049     12.11025         0.000000     -0.000000      0.071522
      2.11025      2.11025     12.11025         0.000000      0.000000      0.071522
      0.00000      2.11025     14.23564         0.000000      0.000000     -0.006981
      2.11025      4.22049     14.23564        -0.000000     -0.000000     -0.006981
      0.00000      4.22049     16.33941         0.000000      0.000000      0.005134
      2.11025      2.11025     16.33941         0.000000      0.000000      0.005134
      4.22049      6.33074     10.00000         0.000000      0.000000      0.346601
      6.33074      0.00000     10.00000        -0.000000      0.000000      0.346601
      4.22049      0.00000     12.11025        -0.000000      0.000000      0.071522
      6.33074      6.33074     12.11025         0.000000     -0.000000      0.071522
      4.22049      6.33074     14.23564        -0.000000      0.000000     -0.006981
      6.33074      0.00000     14.23564        -0.000000      0.000000     -0.006981
      4.22049     -0.00000     16.33941         0.000000      0.000000      0.005134
      6.33074      6.33074     16.33941         0.000000      0.000000      0.005134
      4.22049      2.11025     10.00000         0.000000     -0.000000      0.346601
      6.33074      4.22049     10.00000        -0.000000      0.000000      0.346601
      4.22049      4.22049     12.11025         0.000000      0.000000      0.071522
      6.33074      2.11025     12.11025        -0.000000      0.000000      0.071522
      4.22049      2.11025     14.23564        -0.000000     -0.000000     -0.006981
      6.33074      4.22049     14.23564         0.000000      0.000000     -0.006981
      4.22049      4.22049     16.33941         0.000000     -0.000000      0.005134
      6.33074      2.11025     16.33941         0.000000      0.000000      0.005134
      0.00000      6.33074     12.11025        -0.000000     -0.000000      0.085128
      2.11025      0.00000     12.11025        -0.000000     -0.000000      0.085128
      0.00000      0.00000     10.00000         0.000000      0.000000     -0.501230
      2.11025      6.33074     10.00000         0.000000      0.000000     -0.501230
     -0.00000      6.33074     16.38632         0.000000      0.000000     -0.007669
      2.11025     -0.00000     16.38632        -0.000000      0.000000     -0.007669
     -0.00000     -0.00000     14.22888         0.000000      0.000000      0.007494
      2.11025      6.33074     14.22888         0.000000      0.000000      0.007494
      0.00000      2.11025     12.11025        -0.000000      0.000000      0.085128
      2.11025      4.22049     12.11025         0.000000      0.000000      0.085128
      0.00000      4.22049     10.00000        -0.000000     -0.000000     -0.501230
      2.11025      2.11025     10.00000         0.000000      0.000000     -0.501230
     -0.00000      2.11025     16.38632        -0.000000     -0.000000     -0.007669
      2.11025      4.22049     16.38632        -0.000000      0.000000     -0.007669
     -0.00000      4.22049     14.22888         0.000000      0.000000      0.007494
      2.11025      2.11025     14.22888         0.000000     -0.000000      0.007494
      4.22049      6.33074     12.11025        -0.000000     -0.000000      0.085128
      6.33074      0.00000     12.11025        -0.000000     -0.000000      0.085128
      4.22049      0.00000     10.00000        -0.000000     -0.000000     -0.501230
      6.33074      6.33074     10.00000        -0.000000      0.000000     -0.501230
      4.22049      6.33074     16.38632        -0.000000     -0.000000     -0.007669
      6.33074     -0.00000     16.38632         0.000000      0.000000     -0.007669
      4.22049      0.00000     14.22888         0.000000      0.000000      0.007494
      6.33074      6.33074     14.22888         0.000000     -0.000000      0.007494
      4.22049      2.11025     12.11025        -0.000000     -0.000000      0.085128
      6.33074      4.22049     12.11025        -0.000000     -0.000000      0.085128
      4.22049      4.22049     10.00000         0.000000      0.000000     -0.501230
      6.33074      2.11025     10.00000        -0.000000     -0.000000     -0.501230
      4.22049      2.11025     16.38632        -0.000000     -0.000000     -0.007669
      6.33074      4.22049     16.38632        -0.000000      0.000000     -0.007669
      4.22049      4.22049     14.22888        -0.000000      0.000000      0.007494
      6.33074      2.11025     14.22888         0.000000      0.000000      0.007494
 -----------------------------------------------------------------------------------
    total drift:                                0.000000      0.000000     -0.002024


--------------------------------------------------------------------------------------------------------



  FREE ENERGIE OF THE ION-ELECTRON SYSTEM (eV)
  ---------------------------------------------------
  free  energy   TOTEN  =      -371.29057023 eV

  energy  without entropy=     -371.29057023  energy(sigma->0) =     -371.29057023
 
 d Force = 0.1239216E-02[-0.214E-03, 0.269E-02]  d Energy = 0.1266796E-02-0.276E-04
 d Force = 0.2277700E+03[ 0.228E+03, 0.228E+03]  d Ewald  = 0.2277699E+03 0.238E-04


--------------------------------------------------------------------------------------------------------


    POTLOK:  cpu time      0.1315: real time      0.1319


--------------------------------------------------------------------------------------------------------




--------------------------------------------------------------------------------------------------------


  
 reached required accuracy - stopping structural energy minimisation
     LOOP+:  cpu time     29.5403: real time     29.7445
    4ORBIT:  cpu time      0.0000: real time      0.0000

 total amount of memory used by VASP MPI-rank0   110851. kBytes
=======================================================================

   base      :      30000. kBytes
   nonl-proj :      51852. kBytes
   fftplans  :       8250. kBytes
   grid      :      11298. kBytes
   one-center:        259. kBytes
   wavefun   :       9192. kBytes
 
  
  
 General timing and accounting informations for this job:
 ========================================================
  
                  Total CPU time used (sec):      346.836
                            User time (sec):      344.554
                          System time (sec):        2.282
                         Elapsed time (sec):      350.456
  
                   Maximum memory used (kb):      371216.
                   Average memory used (kb):          N/A
  
                          Minor page faults:       238884
                          Major page faults:          263
                 Voluntary context switches:         5018
