 vasp.6.3.0 20Jan22 (build Apr  1 2022 16:44:48) complex                         
 executed on        HPECrayEX_GCC date 2023.05.17  13:31:27
 running  512 mpi-ranks, with    1 threads/rank
 distrk:  each k-point on  256 cores,    2 groups
 distr:  one band on NCORE=   4 cores,   64 groups


--------------------------------------------------------------------------------------------------------


 INCAR:
   SYSTEM = MgO-rocksalt
   ISMEAR = 0
   SIGMA = 0.05
   EDIFF = 1E-6
   ALGO = ALL
   ISTART = 0
   IBRION = -1
   NSW = 0
   ISYM = 2
   ISIF = 2
   EDIFFG = -0.01
   DIPOL = 0.5 0.5 0.5
   IDIPOL = 3
   LDIPOL = .TRUE.
   GGA = PE
   IVDW = 1
   VDW_C6 = 1.75 0.70 0.63 0.70
   VDW_R0 = 1.452 1.342 1.243 1.342
   ENCUT = 600
   PREC = Normal
   LASPH = .TRUE.
   LREAL = .FALSE.
   ISPIN = 1
   NELM = 200
   NELMIN = 8
   NCORE = 4
   KPAR = 2
   LWAVE = .FALSE.
   LCHARG = .FALSE.

 POTCAR:    PAW_PBE C 08Apr2002                   
 POTCAR:    PAW_PBE O 08Apr2002                   
 POTCAR:    PAW_PBE Mg_pv 13Apr2007               
 POTCAR:    PAW_PBE O 08Apr2002                   
 POTCAR:    PAW_PBE C 08Apr2002                   
   SHA256 =  253f7b50bb8d59471dbedb8285d89021f4a42ed1a2c5d38a03a736e69125dd95 C/POTCAR              
   COPYR  = (c) Copyright 08Apr2002 Georg Kresse                                                    
   COPYR  = This file is part of the software VASP. Any use, copying, and all other rights are regul
   COPYR  = If you do not have a valid VASP license, you may not use, copy or distribute this file. 
   VRHFIN =C: s2p2                                                                                  
   LEXCH  = PE                                                                                      
   EATOM  =   147.1560 eV,   10.8157 Ry                                                             
                                                                                                    
   TITEL  = PAW_PBE C 08Apr2002                                                                     
   LULTRA =        F    use ultrasoft PP ?                                                          
   IUNSCR =        1    unscreen: 0-lin 1-nonlin 2-no                                               
   RPACOR =    1.200    partial core radius                                                         
   POMASS =   12.011; ZVAL   =    4.000    mass and valenz                                          
   RCORE  =    1.500    outmost cutoff radius                                                       
   RWIGS  =    1.630; RWIGS  =    0.863    wigner-seitz radius (au A)                               
   ENMAX  =  400.000; ENMIN  =  300.000 eV                                                          
   ICORE  =        2    local potential                                                             
   LCOR   =        T    correct aug charges                                                         
   LPAW   =        T    paw PP                                                                      
   EAUG   =  644.873                                                                                
   DEXC   =    0.000                                                                                
   RMAX   =    1.529    core radius for proj-oper                                                   
   RAUG   =    1.300    factor for augmentation sphere                                              
   RDEP   =    1.501    radius for radial grids                                                     
   RDEPT  =    1.300    core radius for aug-charge                                                  
                                                                                                    
   Atomic configuration                                                                             
    4 entries                                                                                       
     n  l   j            E        occ.                                                              
     1  0  0.50      -273.3789   2.0000                                                             
     2  0  0.50       -13.7508   2.0000                                                             
     2  1  0.50        -5.2854   2.0000                                                             
     3  2  1.50        -5.4423   0.0000                                                             
   Description                                                                                      
     l       E           TYP  RCUT    TYP  RCUT                                                     
     0    -13.7508458     23  1.200                                                                 
     0     -8.2022199     23  1.200                                                                 
     1     -5.2854383     23  1.500                                                                 
     1     34.0145650     23  1.500                                                                 
     2     -5.4423304      7  1.500                                                                 
  local pseudopotential read in
  partial core-charges read in
  partial kinetic energy density read in
  atomic valenz-charges read in
  non local Contribution for L=           0  read in
    real space projection operators read in
  non local Contribution for L=           0  read in
    real space projection operators read in
  non local Contribution for L=           1  read in
    real space projection operators read in
  non local Contribution for L=           1  read in
    real space projection operators read in
    PAW grid and wavefunctions read in

   number of l-projection  operators is LMAX  =           4
   number of lm-projection operators is LMMAX =           8

 POTCAR:    PAW_PBE O 08Apr2002                   
   SHA256 =  818f92134a0a090dccd8ba1447fa70422a3b330e708bb4f08108d8ae51209ddf O/POTCAR              
   COPYR  = (c) Copyright 08Apr2002 Georg Kresse                                                    
   COPYR  = This file is part of the software VASP. Any use, copying, and all other rights are regul
   COPYR  = If you do not have a valid VASP license, you may not use, copy or distribute this file. 
   VRHFIN =O: s2p4                                                                                  
   LEXCH  = PE                                                                                      
   EATOM  =   432.3788 eV,   31.7789 Ry                                                             
                                                                                                    
   TITEL  = PAW_PBE O 08Apr2002                                                                     
   LULTRA =        F    use ultrasoft PP ?                                                          
   IUNSCR =        1    unscreen: 0-lin 1-nonlin 2-no                                               
   RPACOR =    1.200    partial core radius                                                         
   POMASS =   16.000; ZVAL   =    6.000    mass and valenz                                          
   RCORE  =    1.520    outmost cutoff radius                                                       
   RWIGS  =    1.550; RWIGS  =    0.820    wigner-seitz radius (au A)                               
   ENMAX  =  400.000; ENMIN  =  300.000 eV                                                          
   ICORE  =        2    local potential                                                             
   LCOR   =        T    correct aug charges                                                         
   LPAW   =        T    paw PP                                                                      
   EAUG   =  605.392                                                                                
   DEXC   =    0.000                                                                                
   RMAX   =    1.553    core radius for proj-oper                                                   
   RAUG   =    1.300    factor for augmentation sphere                                              
   RDEP   =    1.550    radius for radial grids                                                     
   RDEPT  =    1.329    core radius for aug-charge                                                  
                                                                                                    
   Atomic configuration                                                                             
    4 entries                                                                                       
     n  l   j            E        occ.                                                              
     1  0  0.50      -514.6923   2.0000                                                             
     2  0  0.50       -23.9615   2.0000                                                             
     2  1  0.50        -9.0305   4.0000                                                             
     3  2  1.50        -9.5241   0.0000                                                             
   Description                                                                                      
     l       E           TYP  RCUT    TYP  RCUT                                                     
     0    -23.9615318     23  1.200                                                                 
     0     -9.5240782     23  1.200                                                                 
     1     -9.0304911     23  1.520                                                                 
     1      8.1634956     23  1.520                                                                 
     2     -9.5240782      7  1.500                                                                 
  local pseudopotential read in
  partial core-charges read in
  partial kinetic energy density read in
  kinetic energy density of atom read in
  atomic valenz-charges read in
  non local Contribution for L=           0  read in
    real space projection operators read in
  non local Contribution for L=           0  read in
    real space projection operators read in
  non local Contribution for L=           1  read in
    real space projection operators read in
  non local Contribution for L=           1  read in
    real space projection operators read in
    PAW grid and wavefunctions read in

   number of l-projection  operators is LMAX  =           4
   number of lm-projection operators is LMMAX =           8

 POTCAR:    PAW_PBE Mg_pv 13Apr2007               
   SHA256 =  f474ac0dd33840b9ae76c01d57fea79fdf77cdfbb07d5ade72c65f83c709b62b Mg_pv/POTCAR          
   COPYR  = (c) Copyright 13Apr2007 Georg Kresse                                                    
   COPYR  = This file is part of the software VASP. Any use, copying, and all other rights are regul
   COPYR  = If you do not have a valid VASP license, you may not use, copy or distribute this file. 
   VRHFIN =Mg: p6s2                                                                                 
   LEXCH  = PE                                                                                      
   EATOM  =  1056.7344 eV,   77.6678 Ry                                                             
                                                                                                    
   TITEL  = PAW_PBE Mg_pv 13Apr2007                                                                 
   LULTRA =        F    use ultrasoft PP ?                                                          
   IUNSCR =        1    unscreen: 0-lin 1-nonlin 2-no                                               
   RPACOR =    1.500    partial core radius                                                         
   POMASS =   24.305; ZVAL   =    8.000    mass and valenz                                          
   RCORE  =    2.000    outmost cutoff radius                                                       
   RWIGS  =    2.000; RWIGS  =    1.058    wigner-seitz radius (au A)                               
   ENMAX  =  403.929; ENMIN  =  302.947 eV                                                          
   RCLOC  =    1.506    cutoff for local pot                                                        
   LCOR   =        T    correct aug charges                                                         
   LPAW   =        T    paw PP                                                                      
   EAUG   =  758.780                                                                                
   DEXC   =    0.000                                                                                
   RMAX   =    2.045    core radius for proj-oper                                                   
   RAUG   =    1.300    factor for augmentation sphere                                              
   RDEP   =    2.025    radius for radial grids                                                     
   RDEPT  =    1.557    core radius for aug-charge                                                  
                                                                                                    
   Atomic configuration                                                                             
    5 entries                                                                                       
     n  l   j            E        occ.                                                              
     1  0  0.50     -1259.6230   2.0000                                                             
     2  0  0.50       -79.8442   2.0000                                                             
     2  1  1.50       -46.6121   6.0000                                                             
     3  0  0.50        -4.7055   2.0000                                                             
     3  2  1.50        -1.3606   0.0000                                                             
   Description                                                                                      
     l       E           TYP  RCUT    TYP  RCUT                                                     
     1    -46.6121073     23  1.600                                                                 
     1      2.7211652     23  1.600                                                                 
     0     -4.7054661     23  2.000                                                                 
     0     61.2262170     23  2.000                                                                 
     2     -1.3605826     23  2.000                                                                 
  local pseudopotential read in
  partial core-charges read in
  partial kinetic energy density read in
  atomic valenz-charges read in
  non local Contribution for L=           1  read in
    real space projection operators read in
  non local Contribution for L=           1  read in
    real space projection operators read in
  non local Contribution for L=           0  read in
    real space projection operators read in
  non local Contribution for L=           0  read in
    real space projection operators read in
  non local Contribution for L=           2  read in
    real space projection operators read in
    PAW grid and wavefunctions read in

   number of l-projection  operators is LMAX  =           5
   number of lm-projection operators is LMMAX =          13

 POTCAR:    PAW_PBE O 08Apr2002                   
   SHA256 =  818f92134a0a090dccd8ba1447fa70422a3b330e708bb4f08108d8ae51209ddf O/POTCAR              
   COPYR  = (c) Copyright 08Apr2002 Georg Kresse                                                    
   COPYR  = This file is part of the software VASP. Any use, copying, and all other rights are regul
   COPYR  = If you do not have a valid VASP license, you may not use, copy or distribute this file. 
   VRHFIN =O: s2p4                                                                                  
   LEXCH  = PE                                                                                      
   EATOM  =   432.3788 eV,   31.7789 Ry                                                             
                                                                                                    
   TITEL  = PAW_PBE O 08Apr2002                                                                     
   LULTRA =        F    use ultrasoft PP ?                                                          
   IUNSCR =        1    unscreen: 0-lin 1-nonlin 2-no                                               
   RPACOR =    1.200    partial core radius                                                         
   POMASS =   16.000; ZVAL   =    6.000    mass and valenz                                          
   RCORE  =    1.520    outmost cutoff radius                                                       
   RWIGS  =    1.550; RWIGS  =    0.820    wigner-seitz radius (au A)                               
   ENMAX  =  400.000; ENMIN  =  300.000 eV                                                          
   ICORE  =        2    local potential                                                             
   LCOR   =        T    correct aug charges                                                         
   LPAW   =        T    paw PP                                                                      
   EAUG   =  605.392                                                                                
   DEXC   =    0.000                                                                                
   RMAX   =    1.553    core radius for proj-oper                                                   
   RAUG   =    1.300    factor for augmentation sphere                                              
   RDEP   =    1.550    radius for radial grids                                                     
   RDEPT  =    1.329    core radius for aug-charge                                                  
                                                                                                    
   Atomic configuration                                                                             
    4 entries                                                                                       
     n  l   j            E        occ.                                                              
     1  0  0.50      -514.6923   2.0000                                                             
     2  0  0.50       -23.9615   2.0000                                                             
     2  1  0.50        -9.0305   4.0000                                                             
     3  2  1.50        -9.5241   0.0000                                                             
   Description                                                                                      
     l       E           TYP  RCUT    TYP  RCUT                                                     
     0    -23.9615318     23  1.200                                                                 
     0     -9.5240782     23  1.200                                                                 
     1     -9.0304911     23  1.520                                                                 
     1      8.1634956     23  1.520                                                                 
     2     -9.5240782      7  1.500                                                                 
  local pseudopotential read in
  partial core-charges read in
  partial kinetic energy density read in
  kinetic energy density of atom read in
  atomic valenz-charges read in
  non local Contribution for L=           0  read in
    real space projection operators read in
  non local Contribution for L=           0  read in
    real space projection operators read in
  non local Contribution for L=           1  read in
    real space projection operators read in
  non local Contribution for L=           1  read in
    real space projection operators read in
    PAW grid and wavefunctions read in

   number of l-projection  operators is LMAX  =           4
   number of lm-projection operators is LMMAX =           8

 -----------------------------------------------------------------------------
|                                                                             |
|               ----> ADVICE to this user running VASP <----                  |
|                                                                             |
|     You have a (more or less) 'large supercell' and for larger cells it     |
|     might be more efficient to use real-space projection operators.         |
|     Therefore, try LREAL= Auto in the INCAR file.                           |
|     Mind: For very accurate calculation, you might also keep the            |
|     reciprocal projection scheme (i.e. LREAL=.FALSE.).                      |
|                                                                             |
 -----------------------------------------------------------------------------

  PAW_PBE C 08Apr2002                   :
 energy of atom  1       EATOM= -147.1560
 kinetic energy error for atom=    0.0057 (will be added to EATOM!!)
  PAW_PBE O 08Apr2002                   :
 energy of atom  2       EATOM= -432.3788
 kinetic energy error for atom=    0.0168 (will be added to EATOM!!)
  PAW_PBE Mg_pv 13Apr2007               :
 energy of atom  3       EATOM=-1056.7344
 kinetic energy error for atom=    0.0221 (will be added to EATOM!!)
  PAW_PBE O 08Apr2002                   :
 energy of atom  4       EATOM= -432.3788
 kinetic energy error for atom=    0.0168 (will be added to EATOM!!)


 POSCAR:  C  O Mg  O
  positions in direct lattice
  No initial velocities read in
 exchange correlation table for  LEXCH =        8
   RHO(1)=    0.500       N(1)  =     2000
   RHO(2)=  100.500       N(2)  =     4000



--------------------------------------------------------------------------------------------------------


 ion  position               nearest neighbor table
   1  0.500  0.500  0.761-   2 1.15
   2  0.500  0.500  0.815-   1 1.15
   3  0.000  0.750  0.352-  35 2.11  37 2.11  38 2.11  45 2.11  54 2.11
   4  0.250  0.000  0.352-  36 2.11  37 2.11  38 2.11  46 2.11  53 2.11
   5  0.000  0.000  0.451-  37 2.11  36 2.11  35 2.11  43 2.11  52 2.11  41 2.12
   6  0.250  0.750  0.451-  38 2.11  36 2.11  35 2.11  44 2.11  51 2.11  42 2.12
   7  0.000  0.750  0.550-  49 2.11  42 2.11  58 2.11  41 2.11  35 2.12  39 2.15
   8  0.250  0.000  0.550-  57 2.11  50 2.11  42 2.11  41 2.11  36 2.12  40 2.15
   9  0.000  0.000  0.649-  39 2.11  40 2.11  47 2.11  56 2.11  41 2.11
  10  0.250  0.750  0.649-  42 2.11  40 2.11  39 2.11  48 2.11  55 2.11
  11  0.000  0.250  0.352-  43 2.11  37 2.11  45 2.11  46 2.11  62 2.11
  12  0.250  0.500  0.352-  44 2.11  38 2.11  45 2.11  46 2.11  61 2.11
  13  0.000  0.500  0.451-  45 2.11  43 2.11  44 2.11  35 2.11  60 2.11  49 2.12
  14  0.250  0.250  0.451-  46 2.11  43 2.11  44 2.11  36 2.11  59 2.11  50 2.12
  15  0.000  0.250  0.550-  49 2.11  50 2.11  66 2.11  41 2.11  43 2.12  47 2.15
  16  0.250  0.500  0.550-  65 2.11  50 2.11  42 2.11  49 2.11  44 2.13  48 2.15
  17  0.000  0.500  0.649-  48 2.10  64 2.10  49 2.11  47 2.11  39 2.11
  18  0.250  0.250  0.649-  50 2.11  47 2.11  40 2.11  48 2.11  63 2.11
  19  0.500  0.750  0.352-  51 2.11  38 2.11  53 2.11  54 2.11  61 2.11
  20  0.750  0.000  0.352-  52 2.11  37 2.11  53 2.11  54 2.11  62 2.11
  21  0.500  0.000  0.451-  53 2.11  51 2.11  52 2.11  36 2.11  59 2.11  57 2.12
  22  0.750  0.750  0.451-  54 2.11  51 2.11  52 2.11  35 2.11  60 2.11  58 2.12
  23  0.500  0.750  0.550-  65 2.11  58 2.11  42 2.11  57 2.11  51 2.13  55 2.15
  24  0.750  0.000  0.550-  57 2.11  58 2.11  66 2.11  41 2.11  52 2.12  56 2.15
  25  0.500  0.000  0.649-  55 2.10  63 2.10  57 2.11  40 2.11  56 2.11
  26  0.750  0.750  0.649-  58 2.11  56 2.11  39 2.11  55 2.11  64 2.11
  27  0.500  0.250  0.352-  59 2.11  53 2.11  46 2.11  61 2.11  62 2.11
  28  0.750  0.500  0.352-  60 2.11  54 2.11  45 2.11  61 2.11  62 2.11
  29  0.500  0.500  0.451-  61 2.11  51 2.11  59 2.11  60 2.11  44 2.11  65 2.13
  30  0.750  0.250  0.451-  62 2.11  52 2.11  59 2.11  60 2.11  43 2.11  66 2.12
  31  0.500  0.250  0.550-  65 2.11  50 2.11  66 2.11  57 2.11  59 2.13  63 2.15
  32  0.750  0.500  0.550-  65 2.11  58 2.11  66 2.11  49 2.11  60 2.13  64 2.15
  33  0.500  0.500  0.651-  48 2.12  55 2.12  63 2.12  64 2.12  65 2.14
  34  0.750  0.250  0.649-  66 2.11  56 2.11  47 2.11  64 2.11  63 2.11
  35  0.000  0.750  0.451-   3 2.11   5 2.11   6 2.11  13 2.11  22 2.11   7 2.12
  36  0.250  0.000  0.451-   4 2.11   5 2.11   6 2.11  14 2.11  21 2.11   8 2.12
  37  0.000  0.000  0.352-   5 2.11   4 2.11   3 2.11  11 2.11  20 2.11
  38  0.250  0.750  0.352-   6 2.11   4 2.11   3 2.11  12 2.11  19 2.11
  39  0.000  0.750  0.651-   9 2.11  10 2.11  26 2.11  17 2.11   7 2.15
  40  0.250  0.000  0.651-   9 2.11  10 2.11  18 2.11  25 2.11   8 2.15
  41  0.000  0.000  0.550-   9 2.11   8 2.11   7 2.11  15 2.11  24 2.11   5 2.12
  42  0.250  0.750  0.550-  10 2.11   8 2.11   7 2.11  16 2.11  23 2.11   6 2.12
  43  0.000  0.250  0.451-  11 2.11   5 2.11  13 2.11  14 2.11  30 2.11  15 2.12
  44  0.250  0.500  0.451-  12 2.11   6 2.11  13 2.11  14 2.11  29 2.11  16 2.13
  45  0.000  0.500  0.352-  13 2.11  11 2.11  12 2.11   3 2.11  28 2.11
  46  0.250  0.250  0.352-  14 2.11  11 2.11  12 2.11   4 2.11  27 2.11
  47  0.000  0.250  0.651-   9 2.11  18 2.11  34 2.11  17 2.11  15 2.15
  48  0.249  0.500  0.651-  17 2.10  10 2.11  18 2.11  33 2.12  16 2.15
  49  0.000  0.500  0.550-  17 2.11  15 2.11   7 2.11  16 2.11  32 2.11  13 2.12
  50  0.250  0.250  0.550-  18 2.11  15 2.11   8 2.11  16 2.11  31 2.11  14 2.12
  51  0.500  0.750  0.451-  19 2.11   6 2.11  21 2.11  22 2.11  29 2.11  23 2.13
  52  0.750  0.000  0.451-  20 2.11   5 2.11  21 2.11  22 2.11  30 2.11  24 2.12
  53  0.500  0.000  0.352-  21 2.11  19 2.11  20 2.11   4 2.11  27 2.11
  54  0.750  0.750  0.352-  22 2.11  19 2.11  20 2.11   3 2.11  28 2.11
  55  0.500  0.751  0.651-  25 2.10  10 2.11  26 2.11  33 2.12  23 2.15
  56  0.750  0.000  0.651-   9 2.11  26 2.11  34 2.11  25 2.11  24 2.15
  57  0.500  0.000  0.550-  25 2.11  24 2.11   8 2.11  23 2.11  31 2.11  21 2.12
  58  0.750  0.750  0.550-  26 2.11  24 2.11   7 2.11  32 2.11  23 2.11  22 2.12
  59  0.500  0.250  0.451-  27 2.11  21 2.11  14 2.11  29 2.11  30 2.11  31 2.13
  60  0.750  0.500  0.451-  28 2.11  22 2.11  13 2.11  29 2.11  30 2.11  32 2.13
  61  0.500  0.500  0.352-  29 2.11  19 2.11  27 2.11  28 2.11  12 2.11
  62  0.750  0.250  0.352-  30 2.11  20 2.11  27 2.11  28 2.11  11 2.11
  63  0.500  0.249  0.651-  25 2.10  18 2.11  34 2.11  33 2.12  31 2.15
  64  0.751  0.500  0.651-  17 2.10  26 2.11  34 2.11  33 2.12  32 2.15
  65  0.500  0.500  0.550-  16 2.11  23 2.11  31 2.11  32 2.11  29 2.13  33 2.14
  66  0.750  0.250  0.550-  34 2.11  24 2.11  15 2.11  32 2.11  31 2.11  30 2.12

  LATTYP: Found a simple tetragonal cell.
 ALAT       =     8.4409846542
 C/A-ratio  =     2.5270438657
  
  Lattice vectors:
  
 A1 = (   8.4409846542,   0.0000000000,   0.0000000000)
 A2 = (   0.0000000000,   8.4409846542,   0.0000000000)
 A3 = (   0.0000000000,   0.0000000000,  21.3307384906)


Analysis of symmetry for initial positions (statically):
=====================================================================
 Subroutine PRICEL returns:
 Original cell was already a primitive cell.
 

 Routine SETGRP: Setting up the symmetry group for a 
 simple tetragonal supercell.


 Subroutine GETGRP returns: Found  8 space group operations
 (whereof  8 operations were pure point group operations)
 out of a pool of 16 trial point group operations.


The static configuration has the point symmetry C_4v.


Analysis of symmetry for dynamics (positions and initial velocities):
=====================================================================
 Subroutine PRICEL returns:
 Original cell was already a primitive cell.
 

 Routine SETGRP: Setting up the symmetry group for a 
 simple tetragonal supercell.


 Subroutine GETGRP returns: Found  8 space group operations
 (whereof  8 operations were pure point group operations)
 out of a pool of 16 trial point group operations.


The dynamic configuration has the point symmetry C_4v.


 Subroutine INISYM returns: Found  8 space group operations
 (whereof  8 operations are pure point group operations),
 and found     1 'primitive' translations


----------------------------------------------------------------------------------------

                                     Primitive cell                                     

  volume of cell :    1519.8199

  direct lattice vectors                    reciprocal lattice vectors
     8.440984654  0.000000000  0.000000000     0.118469591  0.000000000  0.000000000
     0.000000000  8.440984654  0.000000000     0.000000000  0.118469591  0.000000000
     0.000000000  0.000000000 21.330738491     0.000000000  0.000000000  0.046880702

  length of vectors
     8.440984654  8.440984654 21.330738491     0.118469591  0.118469591  0.046880702

  position of ions in fractional coordinates (direct lattice)
     0.500000000  0.500000000  0.761255417
     0.500000000  0.500000000  0.815019136
     0.000000000  0.750000000  0.351605267
     0.250000000  0.000000000  0.351605267
     0.000000000  0.000000000  0.450535089
     0.250000000  0.750000000  0.450535089
     0.000000000  0.749939268  0.550083239
     0.250060732  0.000000000  0.550083239
     0.000000000  0.000000000  0.648745309
     0.249858327  0.750141673  0.648569547
     0.000000000  0.250000000  0.351605267
     0.250000000  0.500000000  0.351605267
     0.000000000  0.500000000  0.450535089
     0.250000000  0.250000000  0.450535089
     0.000000000  0.250060732  0.550083239
     0.250378379  0.500000000  0.550219524
     0.000000000  0.500000000  0.648615280
     0.249858327  0.249858327  0.648569547
     0.500000000  0.750000000  0.351605267
     0.750000000  0.000000000  0.351605267
     0.500000000  0.000000000  0.450535089
     0.750000000  0.750000000  0.450535089
     0.500000000  0.749621621  0.550219524
     0.749939268  0.000000000  0.550083239
     0.500000000  0.000000000  0.648615280
     0.750141673  0.750141673  0.648569547
     0.500000000  0.250000000  0.351605267
     0.750000000  0.500000000  0.351605267
     0.500000000  0.500000000  0.450535089
     0.750000000  0.250000000  0.450535089
     0.500000000  0.250378379  0.550219524
     0.749621621  0.500000000  0.550219524
     0.500000000  0.500000000  0.650616960
     0.750141673  0.249858327  0.648569547
     0.000000000  0.750000000  0.450535089
     0.250000000  0.000000000  0.450535089
     0.000000000  0.000000000  0.351605267
     0.250000000  0.750000000  0.351605267
     0.000000000  0.750218533  0.650979255
     0.249781467  0.000000000  0.650979255
     0.000000000  0.000000000  0.549809890
     0.249945770  0.750054230  0.549859113
     0.000000000  0.250000000  0.450535089
     0.250000000  0.500000000  0.450535089
     0.000000000  0.500000000  0.351605267
     0.250000000  0.250000000  0.351605267
     0.000000000  0.249781467  0.650979255
     0.248822710  0.500000000  0.650882872
     0.000000000  0.500000000  0.549762666
     0.249945770  0.249945770  0.549859113
     0.500000000  0.750000000  0.450535089
     0.750000000  0.000000000  0.450535089
     0.500000000  0.000000000  0.351605267
     0.750000000  0.750000000  0.351605267
     0.500000000  0.751177290  0.650882872
     0.750218533  0.000000000  0.650979255
     0.500000000  0.000000000  0.549762666
     0.750054230  0.750054230  0.549859113
     0.500000000  0.250000000  0.450535089
     0.750000000  0.500000000  0.450535089
     0.500000000  0.500000000  0.351605267
     0.750000000  0.250000000  0.351605267
     0.500000000  0.248822710  0.650882872
     0.751177290  0.500000000  0.650882872
     0.500000000  0.500000000  0.550231357
     0.750054230  0.249945770  0.549859113

  ion indices of the primitive-cell ions
   primitive index   ion index
                 1           1
                 2           2
                 3           3
                 4           4
                 5           5
                 6           6
                 7           7
                 8           8
                 9           9
                10          10
                11          11
                12          12
                13          13
                14          14
                15          15
                16          16
                17          17
                18          18
                19          19
                20          20
                21          21
                22          22
                23          23
                24          24
                25          25
                26          26
                27          27
                28          28
                29          29
                30          30
                31          31
                32          32
                33          33
                34          34
                35          35
                36          36
                37          37
                38          38
                39          39
                40          40
                41          41
                42          42
                43          43
                44          44
                45          45
                46          46
                47          47
                48          48
                49          49
                50          50
                51          51
                52          52
                53          53
                54          54
                55          55
                56          56
                57          57
                58          58
                59          59
                60          60
                61          61
                62          62
                63          63
                64          64
                65          65
                66          66

----------------------------------------------------------------------------------------



 KPOINTS: pymatgen v2020.8.13 with grid density = 

Automatic generation of k-mesh.
 Grid dimensions read from file:
 generate k-points for:    2    2    1

 Generating k-lattice:

  Cartesian coordinates                     Fractional coordinates (reciprocal lattice)
     0.059234796  0.000000000  0.000000000     0.500000000  0.000000000  0.000000000
     0.000000000  0.059234796  0.000000000     0.000000000  0.500000000  0.000000000
     0.000000000  0.000000000  0.046880702     0.000000000  0.000000000  1.000000000

  Length of vectors
     0.059234796  0.059234796  0.046880702

  Shift w.r.t. Gamma in fractional coordinates (k-lattice)
     0.000000000  0.000000000  0.000000000

 
 Subroutine IBZKPT returns following result:
 ===========================================
 
 Found      3 irreducible k-points:
 
 Following reciprocal coordinates:
            Coordinates               Weight
  0.000000  0.000000  0.000000      1.000000
  0.500000  0.000000  0.000000      2.000000
  0.500000  0.500000  0.000000      1.000000
 
 Following cartesian coordinates:
            Coordinates               Weight
  0.000000  0.000000  0.000000      1.000000
  0.059235  0.000000  0.000000      2.000000
  0.059235  0.059235  0.000000      1.000000
 


--------------------------------------------------------------------------------------------------------




 Dimension of arrays:
   k-points           NKPTS =      3   k-points in BZ     NKDIM =      3   number of bands    NBANDS=    320
   number of dos      NEDOS =    301   number of ions     NIONS =     66
   non local maximal  LDIM  =      5   non local SUM 2l+1 LMDIM =     13
   total plane-waves  NPLWV = 373248
   max r-space proj   IRMAX =      1   max aug-charges    IRDMAX=   5039
   dimension x,y,z NGX =    54 NGY =   54 NGZ =  128
   dimension x,y,z NGXF=   108 NGYF=  108 NGZF=  256
   support grid    NGXF=   108 NGYF=  108 NGZF=  256
   ions per type =               1   1  32  32
   NGX,Y,Z   is equivalent  to a cutoff of  10.64, 10.64,  9.98 a.u.
   NGXF,Y,Z  is equivalent  to a cutoff of  21.27, 21.27, 19.95 a.u.

 SYSTEM =  MgO-rocksalt                            
 POSCAR =   C  O Mg  O                             

 Startparameter for this run:
   NWRITE =      2    write-flag & timer
   PREC   = normal    normal or accurate (medium, high low for compatibility)
   ISTART =      0    job   : 0-new  1-cont  2-samecut
   ICHARG =      2    charge: 1-file 2-atom 10-const
   ISPIN  =      1    spin polarized calculation?
   LNONCOLLINEAR =      F non collinear calculations
   LSORBIT =      F    spin-orbit coupling
   INIWAV =      1    electr: 0-lowe 1-rand  2-diag
   LASPH  =      T    aspherical Exc in radial PAW
 Electronic Relaxation 1
   ENCUT  =  600.0 eV  44.10 Ry    6.64 a.u.  16.86 16.86 42.60*2*pi/ulx,y,z
   ENINI  =  600.0     initial cutoff
   ENAUG  =  758.8 eV  augmentation charge cutoff
   NELM   =    200;   NELMIN=  8; NELMDL= -5     # of ELM steps 
   EDIFF  = 0.1E-05   stopping-criterion for ELM
   LREAL  =      F    real-space projection
   NLSPLINE    = F    spline interpolate recip. space projectors
   LCOMPAT=      F    compatible to vasp.4.4
   GGA_COMPAT  = T    GGA compatible to vasp.4.4-vasp.4.6
   LMAXPAW     = -100 max onsite density
   LMAXMIX     =    2 max onsite mixed and CHGCAR
   VOSKOWN=      0    Vosko Wilk Nusair interpolation
   ROPT   =    0.00000   0.00000   0.00000   0.00000
 Ionic relaxation
   EDIFFG = -.1E-01   stopping-criterion for IOM
   NSW    =      0    number of steps for IOM
   NBLOCK =      1;   KBLOCK =      1    inner block; outer block 
   IBRION =     -1    ionic relax: 0-MD 1-quasi-New 2-CG
   NFREE  =      0    steps in history (QN), initial steepest desc. (CG)
   ISIF   =      2    stress and relaxation
   IWAVPR =     10    prediction:  0-non 1-charg 2-wave 3-comb
   ISYM   =      2    0-nonsym 1-usesym 2-fastsym
   LCORR  =      T    Harris-Foulkes like correction to forces

   POTIM  = 0.5000    time-step for ionic-motion
   TEIN   =    0.0    initial temperature
   TEBEG  =    0.0;   TEEND  =   0.0 temperature during run
   SMASS  =  -3.00    Nose mass-parameter (am)
   estimated Nose-frequenzy (Omega)   =  0.10E-29 period in steps = 0.13E+47 mass=  -0.163E-26a.u.
   SCALEE = 1.0000    scale energy and forces
   NPACO  =    256;   APACO  = 10.0  distance and # of slots for P.C.
   PSTRESS=    0.0 pullay stress

  Mass of Ions in am
   POMASS =  12.01 16.00 24.30 16.00
  Ionic Valenz
   ZVAL   =   4.00  6.00  8.00  6.00
  Atomic Wigner-Seitz radii
   RWIGS  =  -1.00 -1.00 -1.00 -1.00
  virtual crystal weights 
   VCA    =   1.00  1.00  1.00  1.00
   NELECT =     458.0000    total number of electrons
   NUPDOWN=      -1.0000    fix difference up-down

 DOS related values:
   EMIN   =  10.00;   EMAX   =-10.00  energy-range for DOS
   EFERMI =   0.00
   ISMEAR =     0;   SIGMA  =   0.05  broadening in eV -4-tet -1-fermi 0-gaus

 Electronic relaxation 2 (details)
   IALGO  =     58    algorithm
   LDIAG  =      T    sub-space diagonalisation (order eigenvalues)
   LSUBROT=      F    optimize rotation matrix (better conditioning)
   TURBO    =      0    0=normal 1=particle mesh
   IRESTART =      0    0=no restart 2=restart with 2 vectors
   NREBOOT  =      0    no. of reboots
   NMIN     =      0    reboot dimension
   EREF     =   0.00    reference energy to select bands
   IMIX   =      4    mixing-type and parameters
     AMIX     =   0.40;   BMIX     =  1.00
     AMIX_MAG =   1.60;   BMIX_MAG =  1.00
     AMIN     =   0.10
     WC   =   100.;   INIMIX=   1;  MIXPRE=   1;  MAXMIX= -45

 Intra band minimization:
   WEIMIN = 0.0000     energy-eigenvalue tresh-hold
   EBREAK =  0.78E-09  absolut break condition
   DEPER  =   0.30     relativ break condition  

   TIME   =   0.40     timestep for ELM

  volume/ion in A,a.u.               =      23.03       155.40
  Fermi-wavevector in a.u.,A,eV,Ry     =   1.097571  2.074108 16.390423  1.204662
  Thomas-Fermi vector in A             =   2.233933

 Write flags
   LWAVE        =      F    write WAVECAR
   LDOWNSAMPLE  =      F    k-point downsampling of WAVECAR
   LCHARG       =      F    write CHGCAR
   LVTOT        =      F    write LOCPOT, total local potential
   LVHAR        =      F    write LOCPOT, Hartree potential only
   LELF         =      F    write electronic localiz. function (ELF)
   LORBIT       =      0    0 simple, 1 ext, 2 COOP (PROOUT), +10 PAW based schemes


 Dipole corrections
   LMONO  =      F    monopole corrections only (constant potential shift)
   LDIPOL =      T    correct potential (dipole corrections)
   IDIPOL =      3    1-x, 2-y, 3-z, 4-all directions 
   EPSILON=  1.0000000 bulk dielectric constant

 Exchange correlation treatment:
   GGA     =    PE    GGA type
   LEXCH   =     8    internal setting for exchange type
   LIBXC   =     F    Libxc                    
   VOSKOWN =     0    Vosko Wilk Nusair interpolation
   LHFCALC =     F    Hartree Fock is set to
   LHFONE  =     F    Hartree Fock one center treatment
   AEXX    =    0.0000 exact exchange contribution

 Linear response parameters
   LEPSILON=     F    determine dielectric tensor
   LRPA    =     F    only Hartree local field effects (RPA)
   LNABLA  =     F    use nabla operator in PAW spheres
   LVEL    =     F    velocity operator in full k-point grid
   CSHIFT  =0.1000    complex shift for real part using Kramers Kronig
   OMEGAMAX=  -1.0    maximum frequency
   DEG_THRESHOLD= 0.2000000E-02 threshold for treating states as degnerate
   RTIME   =   -0.100 relaxation time in fs
  (WPLASMAI=    0.000 imaginary part of plasma frequency in eV, 0.658/RTIME)
   DFIELD  = 0.0000000 0.0000000 0.0000000 field for delta impulse in time

  Optional k-point grid parameters
   LKPOINTS_OPT  =     F    use optional k-point grid
   KPOINTS_OPT_MODE=     1    mode for optional k-point grid

 Orbital magnetization related:
   ORBITALMAG=     F  switch on orbital magnetization
   LCHIMAG   =     F  perturbation theory with respect to B field
   DQ        =  0.001000  dq finite difference perturbation B field
   LLRAUG    =     F  two centre corrections for induced B field



--------------------------------------------------------------------------------------------------------


 Static calculation
 charge density and potential will be updated during run
 non-spin polarized calculation
 Conjugate gradient for all bands (Freysoldt, et al. PRB 79, 241103 (2009))
 preconditioned conjugated gradient                                        
 perform sub-space diagonalisation
    before iterative eigenvector-optimisation
 modified Broyden-mixing scheme, WC =      100.0
 initial mixing is a Kerker type mixing with AMIX =  0.4000 and BMIX =      1.0000
 Hartree-type preconditioning will be used
 using additional bands           91
 reciprocal scheme for non local part
 use partial core corrections
 no Harris-corrections to forces 
 use gradient corrections 
 use of overlap-Matrix (Vanderbilt PP)
 Gauss-broadening in eV      SIGMA  =   0.05


--------------------------------------------------------------------------------------------------------


  energy-cutoff  :      600.00
  volume of cell :     1519.82
      direct lattice vectors                 reciprocal lattice vectors
     8.440984654  0.000000000  0.000000000     0.118469591  0.000000000  0.000000000
     0.000000000  8.440984654  0.000000000     0.000000000  0.118469591  0.000000000
     0.000000000  0.000000000 21.330738491     0.000000000  0.000000000  0.046880702

  length of vectors
     8.440984654  8.440984654 21.330738491     0.118469591  0.118469591  0.046880702



 k-points in units of 2pi/SCALE and weight: pymatgen v2020.8.13 with grid density = 
   0.00000000  0.00000000  0.00000000       0.250
   0.05923480  0.00000000  0.00000000       0.500
   0.05923480  0.05923480  0.00000000       0.250

 k-points in reciprocal lattice and weights: pymatgen v2020.8.13 with grid density = 
   0.00000000  0.00000000  0.00000000       0.250
   0.50000000  0.00000000  0.00000000       0.500
   0.50000000  0.50000000  0.00000000       0.250

 position of ions in fractional coordinates (direct lattice) 
   0.50000000  0.50000000  0.76125542
   0.50000000  0.50000000  0.81501914
   0.00000000  0.75000000  0.35160527
   0.25000000  0.00000000  0.35160527
   0.00000000  0.00000000  0.45053509
   0.25000000  0.75000000  0.45053509
   0.00000000  0.74993927  0.55008324
   0.25006073  0.00000000  0.55008324
   0.00000000  0.00000000  0.64874531
   0.24985833  0.75014167  0.64856955
   0.00000000  0.25000000  0.35160527
   0.25000000  0.50000000  0.35160527
   0.00000000  0.50000000  0.45053509
   0.25000000  0.25000000  0.45053509
   0.00000000  0.25006073  0.55008324
   0.25037838  0.50000000  0.55021952
   0.00000000  0.50000000  0.64861528
   0.24985833  0.24985833  0.64856955
   0.50000000  0.75000000  0.35160527
   0.75000000  0.00000000  0.35160527
   0.50000000  0.00000000  0.45053509
   0.75000000  0.75000000  0.45053509
   0.50000000  0.74962162  0.55021952
   0.74993927  0.00000000  0.55008324
   0.50000000  0.00000000  0.64861528
   0.75014167  0.75014167  0.64856955
   0.50000000  0.25000000  0.35160527
   0.75000000  0.50000000  0.35160527
   0.50000000  0.50000000  0.45053509
   0.75000000  0.25000000  0.45053509
   0.50000000  0.25037838  0.55021952
   0.74962162  0.50000000  0.55021952
   0.50000000  0.50000000  0.65061696
   0.75014167  0.24985833  0.64856955
   0.00000000  0.75000000  0.45053509
   0.25000000  0.00000000  0.45053509
   0.00000000  0.00000000  0.35160527
   0.25000000  0.75000000  0.35160527
   0.00000000  0.75021853  0.65097926
   0.24978147  0.00000000  0.65097926
   0.00000000  0.00000000  0.54980989
   0.24994577  0.75005423  0.54985911
   0.00000000  0.25000000  0.45053509
   0.25000000  0.50000000  0.45053509
   0.00000000  0.50000000  0.35160527
   0.25000000  0.25000000  0.35160527
   0.00000000  0.24978147  0.65097926
   0.24882271  0.50000000  0.65088287
   0.00000000  0.50000000  0.54976267
   0.24994577  0.24994577  0.54985911
   0.50000000  0.75000000  0.45053509
   0.75000000  0.00000000  0.45053509
   0.50000000  0.00000000  0.35160527
   0.75000000  0.75000000  0.35160527
   0.50000000  0.75117729  0.65088287
   0.75021853  0.00000000  0.65097926
   0.50000000  0.00000000  0.54976267
   0.75005423  0.75005423  0.54985911
   0.50000000  0.25000000  0.45053509
   0.75000000  0.50000000  0.45053509
   0.50000000  0.50000000  0.35160527
   0.75000000  0.25000000  0.35160527
   0.50000000  0.24882271  0.65088287
   0.75117729  0.50000000  0.65088287
   0.50000000  0.50000000  0.55023136
   0.75005423  0.24994577  0.54985911

 position of ions in cartesian coordinates  (Angst):
   4.22049233  4.22049233 16.23814023
   4.22049233  4.22049233 17.38496005
   0.00000000  6.33073849  7.50000000
   2.11024616  0.00000000  7.50000000
   0.00000000  0.00000000  9.61024616
   2.11024616  6.33073849  9.61024616
   0.00000000  6.33022585 11.73368172
   2.11075880  0.00000000 11.73368172
   0.00000000  0.00000000 13.83821654
   2.10905031  6.33193435 13.83446740
   0.00000000  2.11024616  7.50000000
   2.11024616  4.22049233  7.50000000
   0.00000000  4.22049233  9.61024616
   2.11024616  2.11024616  9.61024616
   0.00000000  2.11075880 11.73368172
   2.11344006  4.22049233 11.73658877
   0.00000000  4.22049233 13.83544293
   2.10905031  2.10905031 13.83446740
   4.22049233  6.33073849  7.50000000
   6.33073849  0.00000000  7.50000000
   4.22049233  0.00000000  9.61024616
   6.33073849  6.33073849  9.61024616
   4.22049233  6.32754460 11.73658877
   6.33022585  0.00000000 11.73368172
   4.22049233  0.00000000 13.83544293
   6.33193435  6.33193435 13.83446740
   4.22049233  2.11024616  7.50000000
   6.33073849  4.22049233  7.50000000
   4.22049233  4.22049233  9.61024616
   6.33073849  2.11024616  9.61024616
   4.22049233  2.11344006 11.73658877
   6.32754460  4.22049233 11.73658877
   4.22049233  4.22049233 13.87814023
   6.33193435  2.10905031 13.83446740
   0.00000000  6.33073849  9.61024616
   2.11024616  0.00000000  9.61024616
   0.00000000  0.00000000  7.50000000
   2.11024616  6.33073849  7.50000000
   0.00000000  6.33258312 13.88586825
   2.10840153  0.00000000 13.88586825
   0.00000000  0.00000000 11.72785099
   2.10978841  6.33119624 11.72890095
   0.00000000  2.11024616  9.61024616
   2.11024616  4.22049233  9.61024616
   0.00000000  4.22049233  7.50000000
   2.11024616  2.11024616  7.50000000
   0.00000000  2.10840153 13.88586825
   2.10030867  4.22049233 13.88381232
   0.00000000  4.22049233 11.72684365
   2.10978841  2.10978841 11.72890095
   4.22049233  6.33073849  9.61024616
   6.33073849  0.00000000  9.61024616
   4.22049233  0.00000000  7.50000000
   6.33073849  6.33073849  7.50000000
   4.22049233  6.34067598 13.88381232
   6.33258312  0.00000000 13.88586825
   4.22049233  0.00000000 11.72684365
   6.33119624  6.33119624 11.72890095
   4.22049233  2.11024616  9.61024616
   6.33073849  4.22049233  9.61024616
   4.22049233  4.22049233  7.50000000
   6.33073849  2.11024616  7.50000000
   4.22049233  2.10030867 13.88381232
   6.34067598  4.22049233 13.88381232
   4.22049233  4.22049233 11.73684118
   6.33119624  2.10978841 11.72890095



--------------------------------------------------------------------------------------------------------


 k-point   1 :   0.0000 0.0000 0.0000  plane waves:   50745
 k-point   2 :   0.5000 0.0000 0.0000  plane waves:   50798
 k-point   3 :   0.5000 0.5000 0.0000  plane waves:   50752

 maximum and minimum number of plane-waves per node :     12720    12632

 maximum number of plane-waves:     50798
 maximum index in each direction: 
   IXMAX=   16   IYMAX=   16   IZMAX=   42
   IXMIN=  -17   IYMIN=  -17   IZMIN=  -42


 parallel 3D FFT for wavefunctions:
    minimum data exchange during FFTs selected (reduces bandwidth)
 parallel 3D FFT for charge:
    minimum data exchange during FFTs selected (reduces bandwidth)


 total amount of memory used by VASP MPI-rank0    78528. kBytes
=======================================================================

   base      :      30000. kBytes
   nonl-proj :      29343. kBytes
   fftplans  :       3857. kBytes
   grid      :       5885. kBytes
   one-center:        137. kBytes
   wavefun   :       9306. kBytes

     INWAV:  cpu time      0.0002: real time      0.0003
 Broyden mixing: mesh for mixing (old mesh)
   NGX = 33   NGY = 33   NGZ = 85
  (NGX  =108   NGY  =108   NGZ  =256)
  gives a total of  92565 points

 initial charge density was supplied:
 charge density of overlapping atoms calculated
 number of electron     458.0000000 magnetization 
 keeping initial charge density in first step


--------------------------------------------------------------------------------------------------------


 Maximum index for augmentation-charges          334 (set IRDMAX)


--------------------------------------------------------------------------------------------------------


 First call to EWALD:  gamma=   0.154
 Maximum number of real-space cells 4x 4x 2
 Maximum number of reciprocal cells 2x 2x 5

    FEWALD:  cpu time      0.0078: real time      0.0078


--------------------------------------- Iteration      1(   1)  ---------------------------------------


    POTLOK:  cpu time      0.0443: real time      0.0450
    SETDIJ:  cpu time      0.1345: real time      0.1346
    TRIAL :  cpu time      5.4570: real time      5.5468
    CORREC:  cpu time      0.0015: real time      0.0015
    --------------------------------------------
      LOOP:  cpu time      5.6390: real time      5.7858

 eigenvalue-minimisations  :  2304
 total energy-change (2. order) : 0.4154248E+04  (-0.3067128E+05)
 number of electron     458.0000000 magnetization 
 augmentation part      458.0000000 magnetization 

 DIPCOR: dipole corrections for dipol
 direction  3 min pos     1,
 dipolmoment           0.000000      0.000000     -0.000227 electrons x Angstroem
 Tr[quadrupol]     -6318.707208

 energy correction for charged system         0.000000 eV
 dipol+quadrupol energy correction           -0.000000 eV
 added-field ion interaction          0.001814 eV  (added to PSCEN)


 Free energy of the ion-electron system (eV)
  ---------------------------------------------------
  alpha Z        PSCENC =       907.96591850
  Ewald energy   TEWEN  =    137332.73835895
  -Hartree energ DENC   =   -173431.01129236
  -exchange      EXHF   =         0.00000000
  -V(xc)+E(xc)   XCENC  =      1789.26771720
  PAW double counting   =     32310.01086261   -36145.30683839
  entropy T*S    EENTRO =        -0.02754510
  eigenvalues    EBANDS =     -6839.27825564
  atomic energy  EATOM  =     48229.88884101
  ---------------------------------------------------
  free energy    TOTEN  =      4154.24776677 eV

  energy without entropy =     4154.27531187  energy(sigma->0) =     4154.26153932


--------------------------------------------------------------------------------------------------------




--------------------------------------- Iteration      1(   2)  ---------------------------------------


    TRIAL :  cpu time      2.2569: real time      2.2574
    CORREC:  cpu time      0.0003: real time      0.0003
    --------------------------------------------
      LOOP:  cpu time      2.2631: real time      2.2725

 eigenvalue-minimisations  :  2304
 total energy-change (2. order) :-0.4288514E+04  (-0.4215152E+04)
 number of electron     458.0000000 magnetization 
 augmentation part      458.0000000 magnetization 

 DIPCOR: dipole corrections for dipol
 direction  3 min pos     1,
 dipolmoment           0.000000      0.000000     -0.000227 electrons x Angstroem
 Tr[quadrupol]     -6318.707208

 energy correction for charged system         0.000000 eV
 dipol+quadrupol energy correction           -0.000000 eV
 added-field ion interaction          0.001814 eV  (added to PSCEN)


 Free energy of the ion-electron system (eV)
  ---------------------------------------------------
  alpha Z        PSCENC =       907.96591850
  Ewald energy   TEWEN  =    137332.73835895
  -Hartree energ DENC   =   -173431.01129236
  -exchange      EXHF   =         0.00000000
  -V(xc)+E(xc)   XCENC  =      1789.26771720
  PAW double counting   =     32310.01086261   -36145.30683839
  entropy T*S    EENTRO =        -0.00000000
  eigenvalues    EBANDS =    -11127.82003718
  atomic energy  EATOM  =     48229.88884101
  ---------------------------------------------------
  free energy    TOTEN  =      -134.26646967 eV

  energy without entropy =     -134.26646967  energy(sigma->0) =     -134.26646967


--------------------------------------------------------------------------------------------------------




--------------------------------------- Iteration      1(   3)  ---------------------------------------


    TRIAL :  cpu time      2.3720: real time      2.3725
    CORREC:  cpu time      0.0003: real time      0.0003
    --------------------------------------------
      LOOP:  cpu time      2.3788: real time      2.3871

 eigenvalue-minimisations  :  2304
 total energy-change (2. order) :-0.3104599E+03  (-0.3083964E+03)
 number of electron     458.0000000 magnetization 
 augmentation part      458.0000000 magnetization 

 DIPCOR: dipole corrections for dipol
 direction  3 min pos     1,
 dipolmoment           0.000000      0.000000     -0.000227 electrons x Angstroem
 Tr[quadrupol]     -6318.707208

 energy correction for charged system         0.000000 eV
 dipol+quadrupol energy correction           -0.000000 eV
 added-field ion interaction          0.001814 eV  (added to PSCEN)


 Free energy of the ion-electron system (eV)
  ---------------------------------------------------
  alpha Z        PSCENC =       907.96591850
  Ewald energy   TEWEN  =    137332.73835895
  -Hartree energ DENC   =   -173431.01129236
  -exchange      EXHF   =         0.00000000
  -V(xc)+E(xc)   XCENC  =      1789.26771720
  PAW double counting   =     32310.01086261   -36145.30683839
  entropy T*S    EENTRO =        -0.00000000
  eigenvalues    EBANDS =    -11438.27995876
  atomic energy  EATOM  =     48229.88884101
  ---------------------------------------------------
  free energy    TOTEN  =      -444.72639125 eV

  energy without entropy =     -444.72639125  energy(sigma->0) =     -444.72639125


--------------------------------------------------------------------------------------------------------




--------------------------------------- Iteration      1(   4)  ---------------------------------------


    TRIAL :  cpu time      2.3719: real time      2.3722
    CORREC:  cpu time      0.0003: real time      0.0003
    --------------------------------------------
      LOOP:  cpu time      2.3860: real time      2.3865

 eigenvalue-minimisations  :  2368
 total energy-change (2. order) :-0.6017572E+01  (-0.6010455E+01)
 number of electron     458.0000000 magnetization 
 augmentation part      458.0000000 magnetization 

 DIPCOR: dipole corrections for dipol
 direction  3 min pos     1,
 dipolmoment           0.000000      0.000000     -0.000227 electrons x Angstroem
 Tr[quadrupol]     -6318.707208

 energy correction for charged system         0.000000 eV
 dipol+quadrupol energy correction           -0.000000 eV
 added-field ion interaction          0.001814 eV  (added to PSCEN)


 Free energy of the ion-electron system (eV)
  ---------------------------------------------------
  alpha Z        PSCENC =       907.96591850
  Ewald energy   TEWEN  =    137332.73835895
  -Hartree energ DENC   =   -173431.01129236
  -exchange      EXHF   =         0.00000000
  -V(xc)+E(xc)   XCENC  =      1789.26771720
  PAW double counting   =     32310.01086261   -36145.30683839
  entropy T*S    EENTRO =        -0.00000000
  eigenvalues    EBANDS =    -11444.29753100
  atomic energy  EATOM  =     48229.88884101
  ---------------------------------------------------
  free energy    TOTEN  =      -450.74396349 eV

  energy without entropy =     -450.74396349  energy(sigma->0) =     -450.74396349


--------------------------------------------------------------------------------------------------------




--------------------------------------- Iteration      1(   5)  ---------------------------------------


    TRIAL :  cpu time      2.3898: real time      2.3902
    CORREC:  cpu time      0.0003: real time      0.0003
    CHARGE:  cpu time      0.0745: real time      0.0752
    --------------------------------------------
      LOOP:  cpu time      2.4713: real time      2.4799

 eigenvalue-minimisations  :  2368
 total energy-change (2. order) :-0.7811552E-01  (-0.7811247E-01)
 number of electron     457.9999391 magnetization 
 augmentation part      159.5864760 magnetization 

 DIPCOR: dipole corrections for dipol
 direction  3 min pos     1,
 dipolmoment           0.000000      0.000000     -0.000227 electrons x Angstroem
 Tr[quadrupol]     -6318.707208

 energy correction for charged system         0.000000 eV
 dipol+quadrupol energy correction           -0.000000 eV
 added-field ion interaction          0.001814 eV  (added to PSCEN)


 Free energy of the ion-electron system (eV)
  ---------------------------------------------------
  alpha Z        PSCENC =       907.96591850
  Ewald energy   TEWEN  =    137332.73835895
  -Hartree energ DENC   =   -173431.01129236
  -exchange      EXHF   =         0.00000000
  -V(xc)+E(xc)   XCENC  =      1789.26771720
  PAW double counting   =     32310.01086261   -36145.30683839
  entropy T*S    EENTRO =        -0.00000000
  eigenvalues    EBANDS =    -11444.37564652
  atomic energy  EATOM  =     48229.88884101
  ---------------------------------------------------
  free energy    TOTEN  =      -450.82207901 eV

  energy without entropy =     -450.82207901  energy(sigma->0) =     -450.82207901


--------------------------------------------------------------------------------------------------------




--------------------------------------- Iteration      1(   6)  ---------------------------------------


    POTLOK:  cpu time      0.0328: real time      0.0328
    SETDIJ:  cpu time      0.1885: real time      0.1885
    TRIAL :  cpu time      0.6749: real time      0.6756
    CORREC:  cpu time      0.5312: real time      0.5316
    CHARGE:  cpu time      0.0559: real time      0.0559
    --------------------------------------------
      LOOP:  cpu time      1.4977: real time      1.4989

 eigenvalue-minimisations  :     0
 total energy-change (2. order) : 0.1740596E+03  (-0.9610037E+02)
 number of electron     457.9999282 magnetization 
 augmentation part      156.6861181 magnetization 

 DIPCOR: dipole corrections for dipol
 direction  3 min pos     1,
 dipolmoment           0.000000      0.000000      0.163404 electrons x Angstroem
 Tr[quadrupol]     -6355.865154

 energy correction for charged system         0.000000 eV
 dipol+quadrupol energy correction           -0.001590 eV
 added-field ion interaction         -1.307344 eV  (added to PSCEN)


 Free energy of the ion-electron system (eV)
  ---------------------------------------------------
  alpha Z        PSCENC =       904.73319551
  Ewald energy   TEWEN  =    137332.73835895
  -Hartree energ DENC   =   -177306.39082540
  -exchange      EXHF   =         0.00000000
  -V(xc)+E(xc)   XCENC  =      1914.78058240
  PAW double counting   =     36994.53145471   -40784.58801444
  entropy T*S    EENTRO =        -0.00000000
  eigenvalues    EBANDS =     -7562.45602338
  atomic energy  EATOM  =     48229.88884101
  ---------------------------------------------------
  free energy    TOTEN  =      -276.76243064 eV

  energy without entropy =     -276.76243064  energy(sigma->0) =     -276.76243064


--------------------------------------------------------------------------------------------------------




--------------------------------------- Iteration      1(   7)  ---------------------------------------


    POTLOK:  cpu time      0.0289: real time      0.0289
    SETDIJ:  cpu time      0.1883: real time      0.1883
    TRIAL :  cpu time      0.6024: real time      0.6025
    CORREC:  cpu time      0.5156: real time      0.5156
    CHARGE:  cpu time      0.0552: real time      0.0552
    --------------------------------------------
      LOOP:  cpu time      1.3951: real time      1.4048

 eigenvalue-minimisations  :     0
 total energy-change (2. order) :-0.9649694E+02  (-0.6895585E+01)
 number of electron     457.9999272 magnetization 
 augmentation part      154.8028219 magnetization 

 DIPCOR: dipole corrections for dipol
 direction  3 min pos     1,
 dipolmoment           0.000000      0.000000      0.154099 electrons x Angstroem
 Tr[quadrupol]     -6361.064275

 energy correction for charged system         0.000000 eV
 dipol+quadrupol energy correction           -0.001414 eV
 added-field ion interaction         -1.232901 eV  (added to PSCEN)


 Free energy of the ion-electron system (eV)
  ---------------------------------------------------
  alpha Z        PSCENC =       906.42499486
  Ewald energy   TEWEN  =    137332.73835895
  -Hartree energ DENC   =   -175459.62094505
  -exchange      EXHF   =         0.00000000
  -V(xc)+E(xc)   XCENC  =      1846.16318882
  PAW double counting   =     35887.76394670   -39746.78129840
  entropy T*S    EENTRO =        -0.00000000
  eigenvalues    EBANDS =     -9369.83645271
  atomic energy  EATOM  =     48229.88884101
  ---------------------------------------------------
  free energy    TOTEN  =      -373.25936582 eV

  energy without entropy =     -373.25936582  energy(sigma->0) =     -373.25936582


--------------------------------------------------------------------------------------------------------




--------------------------------------- Iteration      1(   8)  ---------------------------------------


    POTLOK:  cpu time      0.0295: real time      0.0297
    SETDIJ:  cpu time      0.1867: real time      0.1867
    TRIAL :  cpu time      0.6055: real time      0.6055
    CORREC:  cpu time      0.5170: real time      0.5171
    CHARGE:  cpu time      0.0551: real time      0.0551
    --------------------------------------------
      LOOP:  cpu time      1.4080: real time      1.4086

 eigenvalue-minimisations  :     0
 total energy-change (2. order) :-0.6911028E+01  (-0.4351361E+01)
 number of electron     457.9999255 magnetization 
 augmentation part      154.9237975 magnetization 

 DIPCOR: dipole corrections for dipol
 direction  3 min pos     1,
 dipolmoment           0.000000      0.000000      0.119917 electrons x Angstroem
 Tr[quadrupol]     -6359.075962

 energy correction for charged system         0.000000 eV
 dipol+quadrupol energy correction           -0.000856 eV
 added-field ion interaction         -0.959419 eV  (added to PSCEN)


 Free energy of the ion-electron system (eV)
  ---------------------------------------------------
  alpha Z        PSCENC =       906.83386631
  Ewald energy   TEWEN  =    137332.73835895
  -Hartree energ DENC   =   -175349.55590719
  -exchange      EXHF   =         0.00000000
  -V(xc)+E(xc)   XCENC  =      1836.35191433
  PAW double counting   =     35771.52327599   -39560.75912525
  entropy T*S    EENTRO =        -0.00000000
  eigenvalues    EBANDS =     -9547.19161803
  atomic energy  EATOM  =     48229.88884101
  ---------------------------------------------------
  free energy    TOTEN  =      -380.17039387 eV

  energy without entropy =     -380.17039387  energy(sigma->0) =     -380.17039387


--------------------------------------------------------------------------------------------------------




--------------------------------------- Iteration      1(   9)  ---------------------------------------


    POTLOK:  cpu time      0.0307: real time      0.0307
    SETDIJ:  cpu time      0.1855: real time      0.1855
    TRIAL :  cpu time      0.6041: real time      0.6046
    CORREC:  cpu time      0.5165: real time      0.5165
    CHARGE:  cpu time      0.0559: real time      0.0559
    --------------------------------------------
      LOOP:  cpu time      1.3974: real time      1.4077

 eigenvalue-minimisations  :     0
 total energy-change (2. order) :-0.4265939E+01  (-0.1722914E+01)
 number of electron     457.9999254 magnetization 
 augmentation part      154.9450732 magnetization 

 DIPCOR: dipole corrections for dipol
 direction  3 min pos     1,
 dipolmoment           0.000000      0.000000      0.183078 electrons x Angstroem
 Tr[quadrupol]     -6351.314368

 energy correction for charged system         0.000000 eV
 dipol+quadrupol energy correction           -0.001995 eV
 added-field ion interaction         -1.464749 eV  (added to PSCEN)


 Free energy of the ion-electron system (eV)
  ---------------------------------------------------
  alpha Z        PSCENC =       907.04235494
  Ewald energy   TEWEN  =    137332.73835895
  -Hartree energ DENC   =   -175206.89595910
  -exchange      EXHF   =         0.00000000
  -V(xc)+E(xc)   XCENC  =      1835.72155410
  PAW double counting   =     35686.72344920   -39512.64346860
  entropy T*S    EENTRO =        -0.00000000
  eigenvalues    EBANDS =     -9657.01146334
  atomic energy  EATOM  =     48229.88884101
  ---------------------------------------------------
  free energy    TOTEN  =      -384.43633284 eV

  energy without entropy =     -384.43633284  energy(sigma->0) =     -384.43633284


--------------------------------------------------------------------------------------------------------




--------------------------------------- Iteration      1(  10)  ---------------------------------------


    POTLOK:  cpu time      0.0308: real time      0.0308
    SETDIJ:  cpu time      0.1851: real time      0.1853
    TRIAL :  cpu time      0.6050: real time      0.6050
    CORREC:  cpu time      0.5164: real time      0.5165
    CHARGE:  cpu time      0.0551: real time      0.0551
    --------------------------------------------
      LOOP:  cpu time      1.4065: real time      1.4070

 eigenvalue-minimisations  :     0
 total energy-change (2. order) :-0.1741145E+01  (-0.5907691E+00)
 number of electron     457.9999261 magnetization 
 augmentation part      154.9078672 magnetization 

 DIPCOR: dipole corrections for dipol
 direction  3 min pos     1,
 dipolmoment           0.000000      0.000000      0.189357 electrons x Angstroem
 Tr[quadrupol]     -6350.527572

 energy correction for charged system         0.000000 eV
 dipol+quadrupol energy correction           -0.002135 eV
 added-field ion interaction         -1.514988 eV  (added to PSCEN)


 Free energy of the ion-electron system (eV)
  ---------------------------------------------------
  alpha Z        PSCENC =       906.60143637
  Ewald energy   TEWEN  =    137332.73835895
  -Hartree energ DENC   =   -175025.50436722
  -exchange      EXHF   =         0.00000000
  -V(xc)+E(xc)   XCENC  =      1834.04197600
  PAW double counting   =     35580.91064857   -39414.84903855
  entropy T*S    EENTRO =        -0.00000000
  eigenvalues    EBANDS =     -9830.00533274
  atomic energy  EATOM  =     48229.88884101
  ---------------------------------------------------
  free energy    TOTEN  =      -386.17747760 eV

  energy without entropy =     -386.17747760  energy(sigma->0) =     -386.17747760


--------------------------------------------------------------------------------------------------------




--------------------------------------- Iteration      1(  11)  ---------------------------------------


    POTLOK:  cpu time      0.0288: real time      0.0288
    SETDIJ:  cpu time      0.1897: real time      0.1897
    TRIAL :  cpu time      0.6054: real time      0.6056
    CORREC:  cpu time      0.5160: real time      0.5160
    CHARGE:  cpu time      0.0547: real time      0.0547
    --------------------------------------------
      LOOP:  cpu time      1.4001: real time      1.4093

 eigenvalue-minimisations  :     0
 total energy-change (2. order) :-0.5918900E+00  (-0.2102576E+00)
 number of electron     457.9999265 magnetization 
 augmentation part      155.0040674 magnetization 

 DIPCOR: dipole corrections for dipol
 direction  3 min pos     1,
 dipolmoment           0.000000      0.000000      0.159718 electrons x Angstroem
 Tr[quadrupol]     -6351.445065

 energy correction for charged system         0.000000 eV
 dipol+quadrupol energy correction           -0.001519 eV
 added-field ion interaction         -1.277853 eV  (added to PSCEN)


 Free energy of the ion-electron system (eV)
  ---------------------------------------------------
  alpha Z        PSCENC =       906.46749065
  Ewald energy   TEWEN  =    137332.73835895
  -Hartree energ DENC   =   -174964.51535877
  -exchange      EXHF   =         0.00000000
  -V(xc)+E(xc)   XCENC  =      1833.08123149
  PAW double counting   =     35524.80562459   -39350.60481262
  entropy T*S    EENTRO =        -0.00000000
  eigenvalues    EBANDS =     -9898.63074296
  atomic energy  EATOM  =     48229.88884101
  ---------------------------------------------------
  free energy    TOTEN  =      -386.76936765 eV

  energy without entropy =     -386.76936765  energy(sigma->0) =     -386.76936765


--------------------------------------------------------------------------------------------------------




--------------------------------------- Iteration      1(  12)  ---------------------------------------


    POTLOK:  cpu time      0.0286: real time      0.0286
    SETDIJ:  cpu time      0.1875: real time      0.1875
    TRIAL :  cpu time      0.6037: real time      0.6039
    CORREC:  cpu time      0.5154: real time      0.5154
    CHARGE:  cpu time      0.0551: real time      0.0551
    --------------------------------------------
      LOOP:  cpu time      1.3969: real time      1.4052

 eigenvalue-minimisations  :     0
 total energy-change (2. order) :-0.2102438E+00  (-0.7356286E-01)
 number of electron     457.9999267 magnetization 
 augmentation part      155.1068781 magnetization 

 DIPCOR: dipole corrections for dipol
 direction  3 min pos     1,
 dipolmoment           0.000000      0.000000      0.143265 electrons x Angstroem
 Tr[quadrupol]     -6352.173349

 energy correction for charged system         0.000000 eV
 dipol+quadrupol energy correction           -0.001222 eV
 added-field ion interaction         -1.146221 eV  (added to PSCEN)


 Free energy of the ion-electron system (eV)
  ---------------------------------------------------
  alpha Z        PSCENC =       906.67871876
  Ewald energy   TEWEN  =    137332.73835895
  -Hartree energ DENC   =   -174992.07341935
  -exchange      EXHF   =         0.00000000
  -V(xc)+E(xc)   XCENC  =      1833.35848436
  PAW double counting   =     35512.86913620   -39337.04032426
  entropy T*S    EENTRO =        -0.00000000
  eigenvalues    EBANDS =     -9873.39940716
  atomic energy  EATOM  =     48229.88884101
  ---------------------------------------------------
  free energy    TOTEN  =      -386.97961149 eV

  energy without entropy =     -386.97961149  energy(sigma->0) =     -386.97961149


--------------------------------------------------------------------------------------------------------




--------------------------------------- Iteration      1(  13)  ---------------------------------------


    POTLOK:  cpu time      0.0286: real time      0.0286
    SETDIJ:  cpu time      0.1877: real time      0.1877
    TRIAL :  cpu time      0.6157: real time      0.6157
    CORREC:  cpu time      0.5199: real time      0.5199
    CHARGE:  cpu time      0.0558: real time      0.0558
    --------------------------------------------
      LOOP:  cpu time      1.4157: real time      1.4222

 eigenvalue-minimisations  :     0
 total energy-change (2. order) :-0.7358262E-01  (-0.3248845E-01)
 number of electron     457.9999266 magnetization 
 augmentation part      155.1400812 magnetization 

 DIPCOR: dipole corrections for dipol
 direction  3 min pos     1,
 dipolmoment           0.000000      0.000000      0.138658 electrons x Angstroem
 Tr[quadrupol]     -6352.579961

 energy correction for charged system         0.000000 eV
 dipol+quadrupol energy correction           -0.001145 eV
 added-field ion interaction         -1.109364 eV  (added to PSCEN)


 Free energy of the ion-electron system (eV)
  ---------------------------------------------------
  alpha Z        PSCENC =       906.82260270
  Ewald energy   TEWEN  =    137332.73835895
  -Hartree energ DENC   =   -175021.87088480
  -exchange      EXHF   =         0.00000000
  -V(xc)+E(xc)   XCENC  =      1833.65727443
  PAW double counting   =     35511.95462669   -39339.07397679
  entropy T*S    EENTRO =        -0.00000000
  eigenvalues    EBANDS =     -9841.17003630
  atomic energy  EATOM  =     48229.88884101
  ---------------------------------------------------
  free energy    TOTEN  =      -387.05319411 eV

  energy without entropy =     -387.05319411  energy(sigma->0) =     -387.05319411


--------------------------------------------------------------------------------------------------------




--------------------------------------- Iteration      1(  14)  ---------------------------------------


    POTLOK:  cpu time      0.0289: real time      0.0289
    SETDIJ:  cpu time      0.1866: real time      0.1866
    TRIAL :  cpu time      0.6049: real time      0.6053
    CORREC:  cpu time      0.5196: real time      0.5196
    CHARGE:  cpu time      0.0551: real time      0.0551
    --------------------------------------------
      LOOP:  cpu time      1.4011: real time      1.4102

 eigenvalue-minimisations  :     0
 total energy-change (2. order) :-0.3251010E-01  (-0.1514593E-01)
 number of electron     457.9999266 magnetization 
 augmentation part      155.1246853 magnetization 

 DIPCOR: dipole corrections for dipol
 direction  3 min pos     1,
 dipolmoment           0.000000      0.000000      0.137271 electrons x Angstroem
 Tr[quadrupol]     -6352.891969

 energy correction for charged system         0.000000 eV
 dipol+quadrupol energy correction           -0.001122 eV
 added-field ion interaction         -1.098262 eV  (added to PSCEN)


 Free energy of the ion-electron system (eV)
  ---------------------------------------------------
  alpha Z        PSCENC =       906.85799250
  Ewald energy   TEWEN  =    137332.73835895
  -Hartree energ DENC   =   -175034.47441235
  -exchange      EXHF   =         0.00000000
  -V(xc)+E(xc)   XCENC  =      1833.66019931
  PAW double counting   =     35511.44740727   -39340.08364804
  entropy T*S    EENTRO =        -0.00000000
  eigenvalues    EBANDS =     -9827.12044287
  atomic energy  EATOM  =     48229.88884101
  ---------------------------------------------------
  free energy    TOTEN  =      -387.08570421 eV

  energy without entropy =     -387.08570421  energy(sigma->0) =     -387.08570421


--------------------------------------------------------------------------------------------------------




--------------------------------------- Iteration      1(  15)  ---------------------------------------


    POTLOK:  cpu time      0.0287: real time      0.0287
    SETDIJ:  cpu time      0.1875: real time      0.1876
    TRIAL :  cpu time      0.6038: real time      0.6038
    CORREC:  cpu time      0.5177: real time      0.5177
    CHARGE:  cpu time      0.0546: real time      0.0546
    --------------------------------------------
      LOOP:  cpu time      1.4066: real time      1.4070

 eigenvalue-minimisations  :     0
 total energy-change (2. order) :-0.1515544E-01  (-0.6277384E-02)
 number of electron     457.9999266 magnetization 
 augmentation part      155.1109722 magnetization 

 DIPCOR: dipole corrections for dipol
 direction  3 min pos     1,
 dipolmoment           0.000000      0.000000      0.136766 electrons x Angstroem
 Tr[quadrupol]     -6353.141853

 energy correction for charged system         0.000000 eV
 dipol+quadrupol energy correction           -0.001114 eV
 added-field ion interaction         -1.094222 eV  (added to PSCEN)


 Free energy of the ion-electron system (eV)
  ---------------------------------------------------
  alpha Z        PSCENC =       906.86567380
  Ewald energy   TEWEN  =    137332.73835895
  -Hartree energ DENC   =   -175043.05466261
  -exchange      EXHF   =         0.00000000
  -V(xc)+E(xc)   XCENC  =      1833.67097156
  PAW double counting   =     35514.60897924   -39342.48117661
  entropy T*S    EENTRO =        -0.00000000
  eigenvalues    EBANDS =     -9819.33784501
  atomic energy  EATOM  =     48229.88884101
  ---------------------------------------------------
  free energy    TOTEN  =      -387.10085966 eV

  energy without entropy =     -387.10085966  energy(sigma->0) =     -387.10085966


--------------------------------------------------------------------------------------------------------




--------------------------------------- Iteration      1(  16)  ---------------------------------------


    POTLOK:  cpu time      0.0287: real time      0.0287
    SETDIJ:  cpu time      0.1874: real time      0.1874
    TRIAL :  cpu time      0.6050: real time      0.6050
    CORREC:  cpu time      0.5169: real time      0.5169
    CHARGE:  cpu time      0.0554: real time      0.0554
    --------------------------------------------
      LOOP:  cpu time      1.3987: real time      1.4077

 eigenvalue-minimisations  :     0
[...]
    291       8.4728      0.00000
    292       8.5143      0.00000
    293       8.5209      0.00000
    294       8.5359      0.00000
    295       8.5745      0.00000
    296       8.5959      0.00000
    297       8.5991      0.00000
    298       8.6018      0.00000
    299       8.6222      0.00000
    300       8.8025      0.00000
    301       8.8941      0.00000
    302       8.8987      0.00000
    303       8.9090      0.00000
    304       9.1495      0.00000
    305       9.3390      0.00000
    306       9.4050      0.00000
    307       9.4245      0.00000
    308       9.4752      0.00000
    309       9.5242      0.00000
    310       9.5483      0.00000
    311       9.5561      0.00000
    312       9.7425      0.00000
    313       9.7736      0.00000
    314       9.8293      0.00000
    315       9.8294      0.00000
    316       9.8373      0.00000
    317      10.2297      0.00000
    318      10.2806      0.00000
    319      10.3426      0.00000
    320      10.3497      0.00000


--------------------------------------------------------------------------------------------------------


 soft charge-density along one line, spin component           1
         0         1         2         3         4         5         6         7         8         9
 total charge-density along one line

 pseudopotential strength for first ion, spin component:           1
 10.227  13.600   0.000   0.032   0.000  -0.000  -0.095  -0.000
 13.600  18.086   0.000   0.042   0.000  -0.000  -0.125  -0.000
  0.000   0.000  -4.364  -0.000  -0.000   8.550   0.000   0.000
  0.032   0.042  -0.000  -4.403  -0.000   0.000   8.607   0.000
  0.000   0.000  -0.000  -0.000  -4.364   0.000   0.000   8.550
 -0.000  -0.000   8.550   0.000   0.000 -18.885  -0.000  -0.000
 -0.095  -0.125   0.000   8.607   0.000  -0.000 -18.963   0.000
 -0.000  -0.000   0.000   0.000   8.550  -0.000   0.000 -18.885
 total augmentation occupancy for first ion, spin component:           1
  7.315  -3.308   0.000   2.001   0.000   0.000   0.368   0.000
 -3.308   1.878  -0.000  -1.531   0.000  -0.000  -0.224   0.000
  0.000  -0.000   0.842   0.000   0.000   0.060   0.000   0.000
  2.001  -1.531   0.000   2.233   0.000   0.000   0.211   0.000
  0.000   0.000   0.000   0.000   0.842   0.000   0.000   0.060
  0.000  -0.000   0.060   0.000   0.000   0.004  -0.000   0.000
  0.368  -0.224   0.000   0.211   0.000  -0.000   0.029   0.000
  0.000   0.000   0.000   0.000   0.060   0.000   0.000   0.004


------------------------ aborting loop because EDIFF is reached ----------------------------------------


    FORLOC:  cpu time      0.0037: real time      0.0038
    FORNL :  cpu time      0.4206: real time      0.4208
    STRESS:  cpu time      1.3343: real time      1.3348
    FORCOR:  cpu time      0.0293: real time      0.0293
    OFIELD:  cpu time      0.0001: real time      0.0001

  DFT-D2 method for vdW energy calculation
  -------------------------------------------------------------------

  Parameters of vdW forcefield:
         C6(Jnm^6/mol)     R0(A)
   -----------------------------
   C        1.750          1.452
   O        0.700          1.342
   Mg       0.630          1.243
   O        0.700          1.342

  vdW correction parametrized for the method pbe       

  IVDW =   1
  VDW_RADIUS =    50.000 A
  VDW_S6 =     0.750
  VDW_SR =     1.000
  VDW_D =    20.000
  LVDW_EWALD = F

  Number of pair interactions contributing to vdW energy:  768278
  Edisp (eV):   -3.69828
    FORVDW:  cpu time      0.1827: real time      0.1828

  FORCE on cell =-STRESS in cart. coord.  units (eV):
  Direction    XX          YY          ZZ          XY          YZ          ZX
  --------------------------------------------------------------------------------------
  Alpha Z   907.96410   907.96410   907.96410
  Ewald  157832.49787157832.49787************     0.00000     0.00000    -0.00000
  Hartree168238.90113168238.90113************    -0.00000    -0.00000    -0.00000
  E(xc)   -2500.84775 -2500.84775 -2504.73509    -0.00000     0.00000     0.00000
  Local  ************************335658.99874    -0.00000    -0.00000    -0.00000
  n-local -2830.54616 -2831.35583 -2861.71720    -0.00000    -0.00000     0.00000
  augment  1053.99517  1053.99517  1044.14765    -0.00000     0.00000    -0.00000
  Kinetic  7494.47003  7497.04981  7517.79351    -0.00000     0.00000    -0.00001
  Fock        0.00000     0.00000     0.00000     0.00000     0.00000     0.00000
  vdW        -5.38409    -5.38409    -4.47105    -0.00000    -0.00000    -0.00000
  -------------------------------------------------------------------------------------
  Total     -24.00863   -24.00863    -0.30274     0.00000     0.00000     0.00000
  in kB     -25.30964   -25.30964    -0.31914     0.00000     0.00000     0.00000
  external pressure =      -16.98 kB  Pullay stress =        0.00 kB


 VOLUME and BASIS-vectors are now :
 -----------------------------------------------------------------------------
  energy-cutoff  :      600.00
  volume of cell :     1519.82
      direct lattice vectors                 reciprocal lattice vectors
     8.440984654  0.000000000  0.000000000     0.118469591  0.000000000  0.000000000
     0.000000000  8.440984654  0.000000000     0.000000000  0.118469591  0.000000000
     0.000000000  0.000000000 21.330738491     0.000000000  0.000000000  0.046880702

  length of vectors
     8.440984654  8.440984654 21.330738491     0.118469591  0.118469591  0.046880702


 FORCES acting on ions:
    Electron-Ion                     Ewald-Force                    Non-Local-Force
 -----------------------------------------------------------------------------------------------
   0.104E-12 0.110E-11 -.855E+03   -.311E-14 -.711E-14 0.829E+03   0.000E+00 0.000E+00 0.267E+02
   0.422E-12 0.215E-11 -.147E+04   -.888E-15 -.155E-14 0.153E+04   -.132E-22 0.000E+00 -.600E+02
   -.862E-14 -.137E+00 0.208E+04   0.560E-13 0.137E+00 -.207E+04   0.132E-22 -.208E-03 -.704E+01
   0.137E+00 -.152E-13 0.208E+04   -.137E+00 0.671E-13 -.207E+04   0.208E-03 0.000E+00 -.704E+01
   -.438E-13 -.337E-13 0.714E+03   -.150E-10 0.150E-10 -.714E+03   0.000E+00 0.529E-22 0.500E+00
   0.527E+00 -.527E+00 0.715E+03   -.523E+00 0.523E+00 -.715E+03   -.268E-02 0.268E-02 0.528E+00
   -.469E-13 -.300E+01 -.642E+03   0.157E-11 0.298E+01 0.642E+03   0.000E+00 0.122E-01 -.166E+00
   0.300E+01 0.141E-12 -.642E+03   -.298E+01 -.151E-11 0.642E+03   -.122E-01 0.265E-22 -.166E+00
   -.544E-13 0.620E-12 -.200E+04   0.444E-12 -.416E-12 0.200E+04   0.000E+00 0.265E-22 0.596E+01
   0.191E+02 -.191E+02 -.198E+04   -.192E+02 0.192E+02 0.198E+04   0.989E-01 -.989E-01 0.605E+01
   -.292E-13 0.137E+00 0.208E+04   -.277E-12 -.137E+00 -.207E+04   0.662E-23 0.208E-03 -.704E+01
   0.135E+00 0.633E-12 0.208E+04   -.132E+00 0.131E-10 -.207E+04   -.170E-02 0.132E-22 -.704E+01
   -.444E-13 0.108E-11 0.715E+03   -.165E-10 0.000E+00 -.716E+03   0.000E+00 0.000E+00 0.467E+00
   0.527E+00 0.527E+00 0.715E+03   -.523E+00 -.523E+00 -.715E+03   -.268E-02 -.268E-02 0.528E+00
   -.498E-13 0.300E+01 -.642E+03   0.304E-11 -.298E+01 0.642E+03   0.132E-22 -.122E-01 -.166E+00
   0.453E+01 0.466E-12 -.635E+03   -.445E+01 0.178E-14 0.635E+03   -.797E-01 -.132E-22 -.253E+00
   -.159E-13 0.102E-11 -.199E+04   -.355E-13 -.995E-13 0.198E+04   0.000E+00 0.000E+00 0.597E+01
   0.191E+02 0.191E+02 -.198E+04   -.192E+02 -.192E+02 0.198E+04   0.989E-01 0.989E-01 0.605E+01
   0.888E-12 -.135E+00 0.208E+04   -.129E-10 0.132E+00 -.207E+04   0.000E+00 0.170E-02 -.704E+01
   -.137E+00 0.185E-13 0.208E+04   0.137E+00 0.471E-13 -.207E+04   -.208E-03 0.662E-23 -.704E+01
   0.832E-12 -.485E-12 0.715E+03   0.145E-11 0.150E-10 -.716E+03   -.827E-23 0.000E+00 0.467E+00
   -.527E+00 -.527E+00 0.715E+03   0.523E+00 0.523E+00 -.715E+03   0.268E-02 0.268E-02 0.528E+00
   0.796E-12 -.453E+01 -.635E+03   -.141E-11 0.445E+01 0.635E+03   -.232E-22 0.797E-01 -.253E+00
   -.300E+01 0.202E-12 -.642E+03   0.298E+01 -.156E-11 0.642E+03   0.122E-01 0.000E+00 -.166E+00
   0.923E-12 0.150E-11 -.199E+04   0.782E-13 -.355E-14 0.198E+04   0.000E+00 -.265E-22 0.597E+01
   -.191E+02 -.191E+02 -.198E+04   0.192E+02 0.192E+02 0.198E+04   -.989E-01 -.989E-01 0.605E+01
   0.889E-12 0.135E+00 0.208E+04   -.131E-10 -.132E+00 -.207E+04   -.331E-23 -.170E-02 -.704E+01
   -.135E+00 0.155E-12 0.208E+04   0.132E+00 0.131E-10 -.207E+04   0.170E-02 -.662E-23 -.704E+01
   0.859E-12 0.237E-11 0.715E+03   -.782E-13 0.355E-14 -.716E+03   -.331E-23 0.000E+00 0.595E+00
   -.527E+00 0.527E+00 0.715E+03   0.523E+00 -.523E+00 -.715E+03   0.268E-02 -.268E-02 0.528E+00
   0.804E-12 0.453E+01 -.635E+03   -.284E-13 -.445E+01 0.635E+03   0.000E+00 -.797E-01 -.253E+00
   -.453E+01 -.236E-11 -.635E+03   0.445E+01 0.000E+00 0.635E+03   0.797E-01 0.000E+00 -.253E+00
   0.921E-12 -.404E-13 -.191E+04   -.426E-13 -.391E-13 0.190E+04   0.000E+00 0.000E+00 0.335E+01
   -.191E+02 0.191E+02 -.198E+04   0.192E+02 -.192E+02 0.198E+04   -.989E-01 0.989E-01 0.605E+01
   -.654E-13 -.437E+00 0.535E+03   0.409E-13 0.432E+00 -.535E+03   -.132E-22 0.640E-02 -.908E-01
   0.437E+00 0.163E-12 0.535E+03   -.432E+00 0.391E-13 -.535E+03   -.640E-02 -.265E-22 -.908E-01
   -.619E-13 -.626E-12 0.156E+04   0.853E-11 -.844E-11 -.157E+04   0.662E-23 0.000E+00 0.349E+01
   0.101E+00 -.101E+00 0.156E+04   -.100E+00 0.100E+00 -.157E+04   -.106E-02 0.106E-02 0.349E+01
   -.517E-13 -.762E+01 -.152E+04   -.871E-12 0.757E+01 0.153E+04   0.265E-22 0.519E-01 -.504E+01
   0.762E+01 0.317E-12 -.152E+04   -.757E+01 0.881E-12 0.153E+04   -.519E-01 -.265E-22 -.504E+01
   -.643E-13 -.226E-12 -.478E+03   -.853E-13 0.639E-13 0.478E+03   0.000E+00 0.000E+00 0.251E+00
   0.277E+01 -.277E+01 -.473E+03   -.276E+01 0.276E+01 0.472E+03   -.428E-02 0.428E-02 0.325E+00
   -.735E-13 0.437E+00 0.535E+03   0.142E-13 -.432E+00 -.535E+03   -.265E-22 -.640E-02 -.908E-01
   0.432E+00 0.700E-12 0.536E+03   -.457E+00 -.764E-11 -.536E+03   0.341E-01 -.662E-23 -.111E+00
   -.421E-13 -.943E-13 0.156E+04   0.845E-11 -.796E-12 -.157E+04   0.265E-22 0.000E+00 0.349E+01
   0.101E+00 0.101E+00 0.156E+04   -.100E+00 -.100E+00 -.157E+04   -.106E-02 -.106E-02 0.349E+01
   -.822E-13 0.762E+01 -.152E+04   -.774E-12 -.757E+01 0.153E+04   0.000E+00 -.519E-01 -.504E+01
   0.255E+02 0.119E-11 -.149E+04   -.251E+02 0.810E-11 0.149E+04   -.397E+00 0.000E+00 -.505E+01
   -.705E-13 0.993E-12 -.473E+03   -.741E-11 0.711E-14 0.473E+03   0.000E+00 0.000E+00 0.277E+00
   0.277E+01 0.277E+01 -.473E+03   -.276E+01 -.276E+01 0.472E+03   -.428E-02 -.428E-02 0.325E+00
   0.307E-12 -.432E+00 0.536E+03   0.764E-11 0.457E+00 -.536E+03   -.132E-22 -.341E-01 -.111E+00
   -.437E+00 0.190E-12 0.535E+03   0.432E+00 0.142E-13 -.535E+03   0.640E-02 0.199E-22 -.908E-01
   0.379E-12 -.148E-11 0.156E+04   0.845E-12 -.846E-11 -.157E+04   0.000E+00 -.529E-22 0.349E+01
   -.101E+00 -.101E+00 0.156E+04   0.100E+00 0.100E+00 -.157E+04   0.106E-02 0.106E-02 0.349E+01
   0.352E-12 -.255E+02 -.149E+04   -.816E-11 0.251E+02 0.149E+04   -.165E-23 0.397E+00 -.505E+01
   -.762E+01 0.364E-12 -.152E+04   0.757E+01 0.924E-12 0.153E+04   0.519E-01 0.000E+00 -.504E+01
   0.307E-12 -.505E-12 -.473E+03   -.711E-14 0.738E-11 0.473E+03   0.000E+00 0.000E+00 0.277E+00
   -.277E+01 -.277E+01 -.473E+03   0.276E+01 0.276E+01 0.472E+03   0.428E-02 0.428E-02 0.325E+00
   0.313E-12 0.432E+00 0.536E+03   0.763E-11 -.457E+00 -.536E+03   0.331E-22 0.341E-01 -.111E+00
   -.432E+00 0.162E-11 0.536E+03   0.457E+00 -.769E-11 -.536E+03   -.341E-01 0.529E-22 -.111E+00
   0.326E-12 0.458E-12 0.156E+04   0.824E-12 -.838E-12 -.157E+04   0.199E-22 0.000E+00 0.348E+01
   -.101E+00 0.101E+00 0.156E+04   0.100E+00 -.100E+00 -.157E+04   0.106E-02 -.106E-02 0.349E+01
   0.385E-12 0.255E+02 -.149E+04   -.820E-11 -.251E+02 0.149E+04   -.120E-22 -.397E+00 -.505E+01
   -.255E+02 -.158E-11 -.149E+04   0.251E+02 0.819E-11 0.149E+04   0.397E+00 0.000E+00 -.505E+01
   0.290E-12 0.102E-11 -.472E+03   -.497E-13 0.426E-13 0.472E+03   0.000E+00 -.331E-23 -.210E+00
   -.277E+01 0.277E+01 -.473E+03   0.276E+01 -.276E+01 0.472E+03   0.428E-02 -.428E-02 0.325E+00
 -----------------------------------------------------------------------------------------------
   0.261E-10 0.243E-10 0.530E+02   0.224E-12 -.137E-12 0.387E-11   -.564E-16 -.304E-16 -.530E+02


 POSITION                                       TOTAL-FORCE (eV/Angst)
 -----------------------------------------------------------------------------------
      4.22049      4.22049     16.23814        -0.000000     -0.000000      0.435546
      4.22049      4.22049     17.38496        -0.000000     -0.000000     -0.339540
      0.00000      6.33074      7.50000        -0.000000      0.000037      0.350172
      2.11025      0.00000      7.50000        -0.000037     -0.000000      0.350172
      0.00000      0.00000      9.61025        -0.000000     -0.000000      0.031415
      2.11025      6.33074      9.61025         0.001553     -0.001553      0.032726
      0.00000      6.33023     11.73368        -0.000000      0.001138      0.036428
      2.11076      0.00000     11.73368        -0.001138     -0.000000      0.036428
      0.00000      0.00000     13.83822        -0.000000     -0.000000     -0.011139
      2.10905      6.33193     13.83447        -0.008328      0.008328     -0.015522
      0.00000      2.11025      7.50000        -0.000000     -0.000037      0.350172
      2.11025      4.22049      7.50000         0.000563     -0.000000      0.350273
      0.00000      4.22049      9.61025        -0.000000     -0.000000      0.039122
      2.11025      2.11025      9.61025         0.001553      0.001553      0.032726
      0.00000      2.11076     11.73368        -0.000000     -0.001138      0.036428
      2.11344      4.22049     11.73659        -0.003369     -0.000000      0.035445
      0.00000      4.22049     13.83544        -0.000000     -0.000000     -0.014131
      2.10905      2.10905     13.83447        -0.008328     -0.008328     -0.015522
      4.22049      6.33074      7.50000        -0.000000     -0.000563      0.350273
      6.33074      0.00000      7.50000         0.000037     -0.000000      0.350172
      4.22049      0.00000      9.61025        -0.000000     -0.000000      0.039122
      6.33074      6.33074      9.61025        -0.001553     -0.001553      0.032726
      4.22049      6.32754     11.73659        -0.000000      0.003369      0.035445
      6.33023      0.00000     11.73368         0.001138     -0.000000      0.036428
      4.22049      0.00000     13.83544        -0.000000     -0.000000     -0.014131
      6.33193      6.33193     13.83447         0.008328      0.008328     -0.015522
      4.22049      2.11025      7.50000        -0.000000      0.000563      0.350273
      6.33074      4.22049      7.50000        -0.000563     -0.000000      0.350273
      4.22049      4.22049      9.61025        -0.000000     -0.000000      0.046322
      6.33074      2.11025      9.61025        -0.001553      0.001553      0.032726
      4.22049      2.11344     11.73659        -0.000000     -0.003369      0.035445
      6.32754      4.22049     11.73659         0.003369     -0.000000      0.035445
      4.22049      4.22049     13.87814        -0.000000     -0.000000     -0.017897
      6.33193      2.10905     13.83447         0.008328     -0.008328     -0.015522
      0.00000      6.33074      9.61025        -0.000000      0.001868      0.064594
      2.11025      0.00000      9.61025        -0.001868     -0.000000      0.064594
      0.00000      0.00000      7.50000        -0.000000     -0.000000     -0.516668
      2.11025      6.33074      7.50000        -0.000299      0.000299     -0.516393
      0.00000      6.33258     13.88587        -0.000000     -0.003039      0.015981
      2.10840      0.00000     13.88587         0.003039     -0.000000      0.015981
      0.00000      0.00000     11.72785        -0.000000     -0.000000      0.017075
      2.10979      6.33120     11.72890         0.004480     -0.004480      0.013166
      0.00000      2.11025      9.61025        -0.000000     -0.001868      0.064594
      2.11025      4.22049      9.61025         0.008829     -0.000000      0.073435
      0.00000      4.22049      7.50000        -0.000000     -0.000000     -0.516533
      2.11025      2.11025      7.50000        -0.000299     -0.000299     -0.516393
      0.00000      2.10840     13.88587        -0.000000      0.003039      0.015981
      2.10031      4.22049     13.88381        -0.022261     -0.000000      0.013989
      0.00000      4.22049     11.72684        -0.000000     -0.000000      0.016064
      2.10979      2.10979     11.72890         0.004480      0.004480      0.013166
      4.22049      6.33074      9.61025        -0.000000     -0.008829      0.073435
      6.33074      0.00000      9.61025         0.001868     -0.000000      0.064594
      4.22049      0.00000      7.50000        -0.000000     -0.000000     -0.516533
      6.33074      6.33074      7.50000         0.000299      0.000299     -0.516393
      4.22049      6.34068     13.88381        -0.000000      0.022261      0.013989
      6.33258      0.00000     13.88587        -0.003039     -0.000000      0.015981
      4.22049      0.00000     11.72684        -0.000000     -0.000000      0.016064
      6.33120      6.33120     11.72890        -0.004480     -0.004480      0.013166
      4.22049      2.11025      9.61025        -0.000000      0.008829      0.073435
      6.33074      4.22049      9.61025        -0.008829     -0.000000      0.073435
      4.22049      4.22049      7.50000        -0.000000     -0.000000     -0.517090
      6.33074      2.11025      7.50000         0.000299     -0.000299     -0.516393
      4.22049      2.10031     13.88381        -0.000000     -0.022261      0.013989
      6.34068      4.22049     13.88381         0.022261     -0.000000      0.013989
      4.22049      4.22049     11.73684        -0.000000     -0.000000      0.005755
      6.33120      2.10979     11.72890        -0.004480      0.004480      0.013166
 -----------------------------------------------------------------------------------
    total drift:                                0.000000      0.000000     -0.023288


--------------------------------------------------------------------------------------------------------



  FREE ENERGIE OF THE ION-ELECTRON SYSTEM (eV)
  ---------------------------------------------------
  free  energy   TOTEN  =      -390.80933579 eV

  energy  without entropy=     -390.80933579  energy(sigma->0) =     -390.80933579



--------------------------------------------------------------------------------------------------------


    POTLOK:  cpu time      0.2216: real time      0.2219


--------------------------------------------------------------------------------------------------------


     LOOP+:  cpu time     47.2660: real time     47.6056
    4ORBIT:  cpu time      0.0000: real time      0.0000

 total amount of memory used by VASP MPI-rank0    78528. kBytes
=======================================================================

   base      :      30000. kBytes
   nonl-proj :      29343. kBytes
   fftplans  :       3857. kBytes
   grid      :       5885. kBytes
   one-center:        137. kBytes
   wavefun   :       9306. kBytes

  
  
 General timing and accounting informations for this job:
 ========================================================
  
                  Total CPU time used (sec):       65.406
                            User time (sec):       63.170
                          System time (sec):        2.236
                         Elapsed time (sec):       70.258
  
                   Maximum memory used (kb):      178840.
                   Average memory used (kb):          N/A
  
                          Minor page faults:        32056
                          Major page faults:           52
                 Voluntary context switches:         7096
