 **********************************************************************
                          MRCC program system
 **********************************************************************
 
                              Written by
     Mihaly Kallay, Peter R. Nagy, David Mester, Laszlo Gyevi-Nagy,
        Jozsef Csoka, P. Bernat Szabo, Zoltan Rolik, Gyula Samu,
     Jozsef Csontos, Bence Hegely, Adam Ganyecz, Istvan Ladjanszki,
       Lorant Szegedy, Bence Ladoczki, Klara Petrov, Mate Farkas,
                    Pal D. Mezei, and Reka A. Horvath
 
        Department of Physical Chemistry and Materials Science
            Budapest University of Technology and Economics
                  Budapest P.O.Box 91, H-1521 Hungary
 
                              www.mrcc.hu
 
                      Release date: March 18, 2022

 ************************ 2023-04-26 04:25:04 *************************
 Executing minp...

 Reading input from MINP...
 
 Input file:
 
calc=DF-MP2
scftype=rhf
verbosity=3
mem=200GB
symm=off
unit=angs
scfiguess=small
scfmaxit=1000
scfalg=locfit1



charge=0
core=2

basis=special
aug-cc-pVTZ
aug-cc-pVTZ

basis_sm=special
def2-SVP
def2-SVP

dfbasis_scf=special
def2-QZVPP-RI-JK
def2-QZVPP-RI-JK

dfbasis_cor=special
aug-cc-pVTZ-RI
aug-cc-pVTZ-RI

ecp=special
none
none

unit=angs
geom=xyz
2
C1 O1 Mg9 O25 ECP69
C     0.00000000000    0.00000000000    2.43329433571
O     0.00000000000    0.00000000000    3.58011415037

 
 
 Checking keyword combinations...
 
 Keywords:
 
 active=none
 agrid=ld0006-ld0590
 agrid_pssp=ld0006-ld0194
 agrid_pssp_sm=ld0006-ld0074
 basis=special
 basis_sm=special
 basopt=off
 bfbasis=none
 bfgsmem=10
 bfgstol=1.0d-3
 bpcompo=0.985
 bpcompv=0.98
 bpdfo=0.985
 bpocc=0.985
 bppdo=0.985
 bppdv=0.98
 bpedo=0.985
 bpedv=0.98
 calc=mp2
 ccmaxit=50
 ccprog=mrcc
 ccsdalg=disk
 ccsdmkl=seq
 ccsdrest=off
 ccsdthreads=2
 cctol=6
 charge=0
 cialg=disk
 ciguess=off
 cmpgrp=auto
 comprest=off
 core=2
 corembed=off
 csapprox=off
 cvs=off
 dboc=off
 delocsomofact=
 dendec=cholesky
 dens=0
 dfalg=lineq
 dfbasis_cab=none
 dfbasis_cor=special
 dfbasis_scf=special
 dfbasis_scf_sm=special
 dfintran=drpa
 dft=off
 dhexc=adc(2)
 diag=david
 docc=
 domrad=10.d0
 drpaalg=fit
 dual=off
 dual_df=off
 ecp=special
 edisp=off
 edisp_embed=off
 embed=off
 etemp=300
 epert=none
 eps=
 espcharge=off
 excrad=1.0
 excrad_fin=0.100000000D-02
 fitting=coulomb
 fmm=off
 fmmord=8
 freq=off
 gamma=1.d0
 gauss=spher
 geom=xyz
 gopt=off
 ghost=none
 gtol=7
 grdens=off
 gridbatch_cos=2000
 grtol=10
 guido_ct=off
 hamilton=dc
 iface=none
 intalg=auto
 itol=10
 laptol=1.d-2
 lccoporder=trffirst
 lcorthr=normal
 lccrest=off
 lmp2dens=on
 lnoepso=0.d0
 lnoepsv=1e-6
 boysalg=jacobi
 localcc=off
 localcorrsymm=off
 locintrf=disk
 mact=
 maxact=off
 maxdim=100
 maxex=0
 maxmicroit=100
 mcscfiguess=hf
 mem=200gb
 mmprog=
 molden=on
 mpitasks=1
 mulmet=0
 mult=
 nacto=0
 nactv=0
 naf_amp=1.d-2
 naf_cor=off
 naf_scf=off
 nafalg=albe
 naftyp=
 nchol=auto
 ndeps=1e-3
 nstate=1
 nsing=0
 nto=off
 ntrip=0
 occ=
 occri=off
 oniom=off
 oniom_eechg=off
 oniom_pcm=off
 oniom_qcorr=off
 optalg=
 optmaxit=50
 optetol=1e-6
 optex=0
 optgtol=1e-4
 optstol=1e-3
 orblocc=off
 orbloce=off
 orbloco=off
 orblocv=off
 orblocguess=cholesky
 osveps=1e-3
 ovirt=off
 ovltol=1e-7
 ovosnorb=80.0
 pcm=off
 popul=off
 pressure=100000
 pssp=off
 ptfreq=0.0
 ptthreads=2
 qro=off
 qscf=off
 qmmm=off
 redcost_exc=off
 redcost_tddft=off
 refdet=none
 rest=0
 rgrid=log3
 rism=off
 rohfcore=semicanonical
 rohftype=semicanonical
 scfalg=locfit1
 scf_conv=auto
 scfdamp=0.0d0
 scfdamp_mode=off
 scfdamp_end=1000
 scfdamp_dampstep=0.d0
 scfdamp_dtol=0.0d0
 scfdamp_maxfact=0.0d0
 scfdamp_minfact=0.0d0
 scfdiis=on
 scfdiis_dtol=0.0d0
 scfdiis_end=1000
 scfdiis_start=2
 scfdiis_step=1
 scfdiis_watch=off
 scfdiis_wrange=10
 scfdiis_wlimit=5
 scfdiis_delmax=2
 scfdtol=7
 scfext=10
 scfguessdens=
 scfiguess=small
 scfloc=pm
 scflshift=0.20
 scflshift_end=8
 scflshift_dtol=0.0
 scflshift_gaptol=0.20
 scfmaxit=1000
 scftype=rhf
 scftol=6
 scspe=1.d0
 scsph=1.d0
 scsps=1.2d0
 scsps_t=1.2d0
 scspt=0.33333333333333
 scspt_t=0.33333333333333
 scspv=1.d0
 spairtol=1e-4
 sqmprog=
 subminp=top
 symm=0
 talg=occ
 temp=298.15
 test=off
 theodore=off
 tlmo=0.999
 tpao=0.94
 tprint=off
 uncontract=off
 unit=angs
 usedisk=2
 verbosity=3
 wpairtol=0.100000000E-05
 
 Calculating integrals for small-basis SCF...

 ************************ 2023-04-26 04:25:04 *************************
 Executing integ...

 Allocation of 200.0 Gbytes of memory...
 
 
 Number of atoms:                  2
 Charge:                           0
 Number of electrons:             14
 Number of core electrons:         4
 Spin multiplicity:                1
 
                 Cartesian coordinates [bohr]      Atomic mass [AMU]  Z
   1  C     0.00000000    0.00000000    4.59825988    12.000000       6
   2  O     0.00000000    0.00000000    6.76543524    15.994915       8
 
 This molecule is linear.
 
 Rotational constants [cm-1]: 
      1.869485479558
 
 Point group: Cxv 
 Computational point group: C1  
 
 Cartesian coordinates in standard orientation [bohr]
   1  C     0.00000000    0.00000000   -1.23821721
   2  O     0.00000000    0.00000000    0.92895816
 
 Nuclear repulsion energy [au]:         22.148646010002
 
 
 Basis set information:
 
 Maximum angular momentum: g
 Maximum number of contracted Gaussians:   10
 Maximum number of primitive Gaussians:    14
 Spherical harmonic GTOs are used.
 
 
 Conventional basis set:
 
   1  C  def2-svp [ 7s 4p 1d | 3s 2p 1d ]
   2  O  def2-svp [ 7s 4p 1d | 3s 2p 1d ]
 
 Basis functions:
            1             2             3             4             5             6             7             8             9            10
    0    1C1s          1C2s          1C3s          1C1pz         1C1py         1C1px         1C2pz         1C2py         1C2px         1C1d-2    
    1    1C1d-1        1C1d0         1C1d+1        1C1d+2        2O1s          2O2s          2O3s          2O1pz         2O1py         2O1px     
    2    2O2pz         2O2py         2O2px         2O1d-2        2O1d-1        2O1d0         2O1d+1        2O1d+2    
 
 Maximum number of basis functions per shell:    6
 Total number of basis functions:     28
 
 
 Fitting basis set for the SCF calculation:
 
   1  C  def2-qzvpp-ri-jk [ 14s 10p 6d 2f 1g | 10s 8p 5d 1f 1g ]
   2  O  def2-qzvpp-ri-jk [ 14s 10p 6d 2f 1g | 10s 8p 4d 2f 1g ]
 
 Basis functions:
            1             2             3             4             5             6             7             8             9            10
    0    1C1s          1C2s          1C3s          1C4s          1C5s          1C6s          1C7s          1C8s          1C9s          1C10s     
    1    1C1pz         1C1py         1C1px         1C2pz         1C2py         1C2px         1C3pz         1C3py         1C3px         1C4pz     
    2    1C4py         1C4px         1C5pz         1C5py         1C5px         1C6pz         1C6py         1C6px         1C7pz         1C7py     
    3    1C7px         1C8pz         1C8py         1C8px         1C1d-2        1C1d-1        1C1d0         1C1d+1        1C1d+2        1C2d-2    
    4    1C2d-1        1C2d0         1C2d+1        1C2d+2        1C3d-2        1C3d-1        1C3d0         1C3d+1        1C3d+2        1C4d-2    
    5    1C4d-1        1C4d0         1C4d+1        1C4d+2        1C5d-2        1C5d-1        1C5d0         1C5d+1        1C5d+2        1C1f-3    
    6    1C1f-2        1C1f-1        1C1f0         1C1f+1        1C1f+2        1C1f+3        1C1g-4        1C1g-3        1C1g-2        1C1g-1    
    7    1C1g0         1C1g+1        1C1g+2        1C1g+3        1C1g+4        2O1s          2O2s          2O3s          2O4s          2O5s      
    8    2O6s          2O7s          2O8s          2O9s          2O10s         2O1pz         2O1py         2O1px         2O2pz         2O2py     
    9    2O2px         2O3pz         2O3py         2O3px         2O4pz         2O4py         2O4px         2O5pz         2O5py         2O5px     
   10    2O6pz         2O6py         2O6px         2O7pz         2O7py         2O7px         2O8pz         2O8py         2O8px         2O1d-2    
   11    2O1d-1        2O1d0         2O1d+1        2O1d+2        2O2d-2        2O2d-1        2O2d0         2O2d+1        2O2d+2        2O3d-2    
   12    2O3d-1        2O3d0         2O3d+1        2O3d+2        2O4d-2        2O4d-1        2O4d0         2O4d+1        2O4d+2        2O1f-3    
   13    2O1f-2        2O1f-1        2O1f0         2O1f+1        2O1f+2        2O1f+3        2O2f-3        2O2f-2        2O2f-1        2O2f0     
   14    2O2f+1        2O2f+2        2O2f+3        2O1g-4        2O1g-3        2O1g-2        2O1g-1        2O1g0         2O1g+1        2O1g+2    
   15    2O1g+3        2O1g+4    
 
 Maximum number of basis functions per shell:   25
 Total number of basis functions:    152
 
 
 Initializing the SAD routines for the initial guess...
 Checking the files required for the initial guess...
 Density files have not been found for the initial guess.
 Generating SCFDENSITIES.C.def2-svp.0
 Generating SCFDENSITIES.O.def2-svp.0
 CPU time [min]:     0.112                   Wall time [min]:     0.159
 
 Character table for point group C1:
 
          E  
    A     1
 
 Number of basis functions per irrep:
    A      28
 
 
 Calculation of overlap integrals...
 CPU time [min]:     0.112                   Wall time [min]:     0.159
 
 Calculation of the square root of the overlap matrix...
 Minimum eigenvalue of the overlap matrix: 0.197811E-01
 CPU time [min]:     0.129                   Wall time [min]:     0.160
 
 Calculation of kinetic energy integrals...
 CPU time [min]:     0.130                   Wall time [min]:     0.160
 Calculation of dipole moment integrals...
 CPU time [min]:     0.131                   Wall time [min]:     0.160
 Calculation of nuclear attraction integrals...
 CPU time [min]:     0.133                   Wall time [min]:     0.160
 
 Calculation of prescreening integrals...
 CPU time [min]:     0.156                   Wall time [min]:     0.161
 
 Calculation of two-center Coulomb integrals...
   5% done.
  19% done.
  31% done.
  52% done.
  72% done.
  89% done.
 100% done.
 CPU time [min]:     0.241                   Wall time [min]:     0.163
 
 Cholesky decomposition of the two-center matrix...
 Reciprocal of the condition number:  0.440129E-04
 CPU time [min]:     0.343                   Wall time [min]:     0.166
 
 
 Running small-basis SCF...

 ************************ 2023-04-26 04:25:15 *************************
 Executing scf...

 @scfsetup: integrals calculated directly
            mrcc/integ direct run
 @scfsetup: calculating on full matrices
            not using symmetry adapted basis
 @scfsetup: diis switched on
 @scfsetup: number of steps to extrapolate from  10
 @scfsetup: tolerance in energy deviation    0.100000E-05
            tolerance in density deviation    0.100000E-06
 @scfsetup: maximum number of iterations:1000
 @scfsetup: restricted closed shell hf calc
 @scfsetup: starting scf from superposition of atomic densities
 @scfsetup: occupation set:
            from initial orbitals
 @scfsetup: Parameter-set for SCF acceleration: normal
 @scfsetup: diis runs from iteration:   2
 @scfsetup: diis runs to iteration:1000
 @scfsetup: diis runs in every iteration
 @scfsetup: diiswatch is disabled                   
 @scfsetup: diis dtol criteria to switch on:      0.0000E+00
           (or the iteration number below is reached)
 @scfsetup: static damping scheme
            iteration step criteria to turn damping off: 3
 @scfsetup: dynamic level shifting
            tolarance in HOMO-LUMO gap:  0.200
            tolarance in density deviation:     0.0000E+00
            iteration step criteria to turn level shifting off: 8
 Allocation of 200.0 Gbytes of memory...
 ======================================================================
 ITERATION STEP   1
 CPU time [min]:     0.015                   Wall time [min]:     0.007
 

 SCF control                  : initial
 Damping factor/level shift   : 0.000/0.200
 DIIS [start/end/frequency]   :   2 /*** /  1

 Constructing Fock-matrix...
 
 Pipek-Mezey localization...
 Step  Convergence
   1   0.832889090198
   2   0.438093565470
   3   0.010068247787
   4   0.000002296363
   5   0.000000000000
 CPU time [min]:     0.051                   Wall time [min]:     0.009
 
 Constructing local fitting domains...
 Maximum number of atoms in fitting domains:    2
 Average number of atoms in fitting domains:    2.0
 
 First step of Coulomb + first step of exchange...
 Exchange contribution is evaluated for MOs 1 to 7.
   1% done.
  26% done.
  38% done.
  68% done.
 100% done.
 CPU time [min]:     0.221                   Wall time [min]:     0.014
 
 Fitting and assembly step of exchange...
 CPU time [min]:     0.224                   Wall time [min]:     0.014
 
 Second step of Coulomb...
   1% done.
  26% done.
  38% done.
  68% done.
 100% done.
 CPU time [min]:     0.231                   Wall time [min]:     0.015
 
 Gradient norm:      1.6037E+00
 RMS of [F,P]:                                         0.07421905592499
 RMS of difference density:                            0.03182368265543
 Gap [au]:  0.70188425
 ALPHA OCC:   7
 BETA  OCC:   7
 
 ***HARTREE-FOCK ENERGY IN STEP   1 IS       -112.4048862734007770 [AU]
 ======================================================================
 ITERATION STEP   2
 CPU time [min]:     0.246                   Wall time [min]:     0.015
 

 SCF control                  : diis
 Damping factor/level shift   : 0.000/0.000
 DIIS [start/end/frequency]   :   2 /*** /  1

 Constructing Fock-matrix...
 
 Pipek-Mezey localization...
 Step  Convergence
   1   0.569557144082
   2   0.147264571789
   3   0.071388997678
   4   0.000037321272
   5   0.000000000022
 CPU time [min]:     0.278                   Wall time [min]:     0.016
 
 Constructing local fitting domains...
 Maximum number of atoms in fitting domains:    2
 Average number of atoms in fitting domains:    2.0
 
 First step of Coulomb + first step of exchange...
 Exchange contribution is evaluated for MOs 1 to 7.
   1% done.
  26% done.
  38% done.
  68% done.
 100% done.
 CPU time [min]:     0.302                   Wall time [min]:     0.017
 
 Fitting and assembly step of exchange...
 CPU time [min]:     0.303                   Wall time [min]:     0.017
 
 Second step of Coulomb...
   1% done.
  26% done.
  38% done.
  68% done.
 100% done.
 CPU time [min]:     0.309                   Wall time [min]:     0.017
 
 Gradient norm:      1.7265E-01
 DIIS is running in this iteration step.
 RMS of [F,P]:                                         0.00916988069253
 RMS of difference density:                            0.00900091969229
 Gap [au]:  0.69708118
 ALPHA OCC:   7
 BETA  OCC:   7
 
 ***HARTREE-FOCK ENERGY IN STEP   2 IS       -112.6334551431505417 [AU]
 
 Step comparison  Energy Drift [au]  DIIS error drift  Gradient drift
        1            2.2857E-01         6.5049E-02       1.4310E+00
        2            1.1263E+02         1.0000E-07       1.4310E+00
 ======================================================================
 ITERATION STEP   3
 CPU time [min]:     0.317                   Wall time [min]:     0.017
 

 SCF control                  : diis
 Damping factor/level shift   : 0.000/0.000
 DIIS [start/end/frequency]   :   2 /*** /  1

 Constructing Fock-matrix...
 
 Pipek-Mezey localization...
 Step  Convergence
   1   0.571565514673
   2   0.162627432597
   3   0.077875800583
   4   0.000031808600
   5   0.000000000003
 CPU time [min]:     0.336                   Wall time [min]:     0.017
 
 Constructing local fitting domains...
 Local fitting domains are unchanged.
 
 First step of Coulomb + first step of exchange...
 Exchange contribution is evaluated for MOs 1 to 7.
   1% done.
  26% done.
  38% done.
  68% done.
 100% done.
 CPU time [min]:     0.360                   Wall time [min]:     0.018
 
 Fitting and assembly step of exchange...
 CPU time [min]:     0.360                   Wall time [min]:     0.018
 
 Second step of Coulomb...
   1% done.
  26% done.
  38% done.
  68% done.
 100% done.
 CPU time [min]:     0.367                   Wall time [min]:     0.018
 
 Gradient norm:      3.8587E-02
 DIIS is running in this iteration step.
 RMS of [F,P]:                                         0.00220852702821
 RMS of difference density:                            0.00195716380672
 Gap [au]:  0.69505022
 ALPHA OCC:   7
 BETA  OCC:   7
 
 ***HARTREE-FOCK ENERGY IN STEP   3 IS       -112.6421263578086922 [AU]
 
 Step comparison  Energy Drift [au]  DIIS error drift  Gradient drift
        2            8.6712E-03         6.9614E-03       1.3406E-01
 ======================================================================
 ITERATION STEP   4
 CPU time [min]:     0.373                   Wall time [min]:     0.019
 

 SCF control                  : diis
 Damping factor/level shift   : 0.000/0.000
 DIIS [start/end/frequency]   :   2 /*** /  1

 Constructing Fock-matrix...
 
 Pipek-Mezey localization...
 Step  Convergence
   1   0.596716447146
   2   0.235156541635
   3   0.133199391636
   4   0.000133360703
   5   0.000000000003
 CPU time [min]:     0.391                   Wall time [min]:     0.019
 
 Constructing local fitting domains...
 Local fitting domains are unchanged.
 
 First step of Coulomb + first step of exchange...
 Exchange contribution is evaluated for MOs 1 to 7.
   1% done.
  26% done.
  38% done.
  68% done.
 100% done.
 CPU time [min]:     0.417                   Wall time [min]:     0.020
 
 Fitting and assembly step of exchange...
 CPU time [min]:     0.417                   Wall time [min]:     0.020
 
 Second step of Coulomb...
   1% done.
  26% done.
  38% done.
  68% done.
 100% done.
 CPU time [min]:     0.424                   Wall time [min]:     0.020
 
 Gradient norm:      1.1796E-02
 DIIS is running in this iteration step.
 RMS of [F,P]:                                         0.00066014599270
 RMS of difference density:                            0.00099760738469
 Gap [au]:  0.69400234
 ALPHA OCC:   7
 BETA  OCC:   7
 
 ***HARTREE-FOCK ENERGY IN STEP   4 IS       -112.6427474629818732 [AU]
 
 Step comparison  Energy Drift [au]  DIIS error drift  Gradient drift
        3            6.2111E-04         1.5484E-03       2.6792E-02
 ======================================================================
 ITERATION STEP   5
 CPU time [min]:     0.430                   Wall time [min]:     0.020
 

 SCF control                  : diis
 Damping factor/level shift   : 0.000/0.000
 DIIS [start/end/frequency]   :   2 /*** /  1

 Constructing Fock-matrix...
 
 Pipek-Mezey localization...
 Step  Convergence
   1   0.596778069233
   2   0.107812530406
   3   0.013567848795
   4   0.000001400707
   5   0.000000000000
 CPU time [min]:     0.448                   Wall time [min]:     0.021
 
 Constructing local fitting domains...
 Local fitting domains are unchanged.
 
 First step of Coulomb + first step of exchange...
 Exchange contribution is evaluated for MOs 1 to 7.
   1% done.
  26% done.
  38% done.
  68% done.
 100% done.
 CPU time [min]:     0.472                   Wall time [min]:     0.021
 
 Fitting and assembly step of exchange...
 CPU time [min]:     0.472                   Wall time [min]:     0.021
 
 Second step of Coulomb...
   1% done.
  26% done.
  38% done.
  68% done.
 100% done.
 CPU time [min]:     0.478                   Wall time [min]:     0.021
 
 Gradient norm:      7.7386E-03
 DIIS is running in this iteration step.
 RMS of [F,P]:                                         0.00041955708785
 RMS of difference density:                            0.00026543127493
 Gap [au]:  0.69309334
 ALPHA OCC:   7
 BETA  OCC:   7
 
 ***HARTREE-FOCK ENERGY IN STEP   5 IS       -112.6428326297485683 [AU]
 
 Step comparison  Energy Drift [au]  DIIS error drift  Gradient drift
        4            8.5167E-05         2.4059E-04       4.0571E-03
 ======================================================================
 ITERATION STEP   6
 CPU time [min]:     0.484                   Wall time [min]:     0.022
 

 SCF control                  : diis
 Damping factor/level shift   : 0.000/0.000
 DIIS [start/end/frequency]   :   2 /*** /  1

 Constructing Fock-matrix...
 
 Pipek-Mezey localization...
 Step  Convergence
   1   0.587744366147
   2   0.624686303448
   3   0.042835184057
   4   0.001201403585
   5   0.000000132391
   6   0.000000000446
   7   0.000000000000
 CPU time [min]:     0.503                   Wall time [min]:     0.022
 
 Constructing local fitting domains...
 Local fitting domains are unchanged.
 
 First step of Coulomb + first step of exchange...
 Exchange contribution is evaluated for MOs 1 to 7.
   1% done.
  26% done.
  38% done.
  68% done.
 100% done.
 CPU time [min]:     0.527                   Wall time [min]:     0.023
 
 Fitting and assembly step of exchange...
 CPU time [min]:     0.527                   Wall time [min]:     0.023
 
 Second step of Coulomb...
   1% done.
  26% done.
  38% done.
  68% done.
 100% done.
 CPU time [min]:     0.533                   Wall time [min]:     0.023
 
 Gradient norm:      1.0975E-03
 DIIS is running in this iteration step.
 RMS of [F,P]:                                         0.00006999488913
 RMS of difference density:                            0.00011901018442
 Gap [au]:  0.69301715
 ALPHA OCC:   7
 BETA  OCC:   7
 
 ***HARTREE-FOCK ENERGY IN STEP   6 IS       -112.6428460057927055 [AU]
 
 Step comparison  Energy Drift [au]  DIIS error drift  Gradient drift
        5            1.3376E-05         3.4956E-04       6.6411E-03
 ======================================================================
 ITERATION STEP   7
 CPU time [min]:     0.539                   Wall time [min]:     0.023
 

 SCF control                  : diis
 Damping factor/level shift   : 0.000/0.000
 DIIS [start/end/frequency]   :   2 /*** /  1

 Constructing Fock-matrix...
 
 Pipek-Mezey localization...
 Step  Convergence
   1   0.580044731585
   2   0.636090521834
   3   0.040657819385
   4   0.000444331854
   5   0.000000011988
   6   0.000000000000
 CPU time [min]:     0.558                   Wall time [min]:     0.024
 
 Constructing local fitting domains...
 Local fitting domains are unchanged.
 
 First step of Coulomb + first step of exchange...
 Exchange contribution is evaluated for MOs 1 to 7.
   1% done.
  26% done.
  38% done.
  68% done.
 100% done.
 CPU time [min]:     0.581                   Wall time [min]:     0.024
 
 Fitting and assembly step of exchange...
 CPU time [min]:     0.581                   Wall time [min]:     0.024
 
 Second step of Coulomb...
   1% done.
  26% done.
  38% done.
  68% done.
 100% done.
 CPU time [min]:     0.587                   Wall time [min]:     0.024
 
 Gradient norm:      2.5057E-04
 DIIS is running in this iteration step.
 RMS of [F,P]:                                         0.00001389484083
 RMS of difference density:                            0.00001782963395
 Gap [au]:  0.69303702
 ALPHA OCC:   7
 BETA  OCC:   7
 
 ***HARTREE-FOCK ENERGY IN STEP   7 IS       -112.6428471615140410 [AU]
 
 Step comparison  Energy Drift [au]  DIIS error drift  Gradient drift
        6            1.1557E-06         5.6100E-05       8.4692E-04
 ======================================================================
 ITERATION STEP   8
 CPU time [min]:     0.593                   Wall time [min]:     0.025
 

 SCF control                  : diis
 Damping factor/level shift   : 0.000/0.000
 DIIS [start/end/frequency]   :   2 /*** /  1

 Constructing Fock-matrix...
 
 Pipek-Mezey localization...
 Step  Convergence
   1   0.200902931213
   2   0.275839840639
   3   0.065409385771
   4   0.000001573759
   5   0.000000000000
 CPU time [min]:     0.612                   Wall time [min]:     0.025
 
 Constructing local fitting domains...
 Local fitting domains are unchanged.
 
 First step of Coulomb + first step of exchange...
 Exchange contribution is evaluated for MOs 1 to 7.
   1% done.
  26% done.
  38% done.
  68% done.
 100% done.
 CPU time [min]:     0.635                   Wall time [min]:     0.026
 
 Fitting and assembly step of exchange...
 CPU time [min]:     0.635                   Wall time [min]:     0.026
 
 Second step of Coulomb...
   1% done.
  26% done.
  38% done.
  68% done.
 100% done.
 CPU time [min]:     0.641                   Wall time [min]:     0.026
 
 Gradient norm:      2.5908E-05
 DIIS is running in this iteration step.
 RMS of [F,P]:                                         0.00000150940971
 RMS of difference density:                            0.00000184883985
 Gap [au]:  0.69303774
 ALPHA OCC:   7
 BETA  OCC:   7
 
 ***HARTREE-FOCK ENERGY IN STEP   8 IS       -112.6428471904555835 [AU]
 
 Step comparison  Energy Drift [au]  DIIS error drift  Gradient drift
        7            2.8942E-08         1.2385E-05       2.2466E-04
 ======================================================================
 ITERATION STEP   9
 CPU time [min]:     0.648                   Wall time [min]:     0.026
 

 SCF control                  : diis
 Damping factor/level shift   : 0.000/0.000
 DIIS [start/end/frequency]   :   2 /*** /  1

 Constructing Fock-matrix...
 
 Pipek-Mezey localization...
 Step  Convergence
   1   0.591875247709
   2   0.106921562314
   3   0.003771601000
   4   0.000000553836
   5   0.000000000001
 CPU time [min]:     0.666                   Wall time [min]:     0.027
 
 Constructing local fitting domains...
 Local fitting domains are unchanged.
 
 First step of Coulomb + first step of exchange...
 Exchange contribution is evaluated for MOs 1 to 7.
   1% done.
  26% done.
  38% done.
  68% done.
 100% done.
 CPU time [min]:     0.689                   Wall time [min]:     0.027
 
 Fitting and assembly step of exchange...
 CPU time [min]:     0.689                   Wall time [min]:     0.027
 
 Second step of Coulomb...
   1% done.
  26% done.
  38% done.
  68% done.
 100% done.
 CPU time [min]:     0.696                   Wall time [min]:     0.028
 
 Gradient norm:      2.6299E-06
 DIIS is running in this iteration step.
 RMS of [F,P]:                                         0.00000017294274
 RMS of difference density:                            0.00000030630405
 Gap [au]:  0.69303791
 ALPHA OCC:   7
 BETA  OCC:   7
 
 ***HARTREE-FOCK ENERGY IN STEP   9 IS       -112.6428471907554183 [AU]
 
 Step comparison  Energy Drift [au]  DIIS error drift  Gradient drift
        8            2.9983E-10         1.3365E-06       2.3278E-05
 ======================================================================
 ITERATION STEP  10
 CPU time [min]:     0.702                   Wall time [min]:     0.028
 

 SCF control                  : diis
 Damping factor/level shift   : 0.000/0.000
 DIIS [start/end/frequency]   :   2 /*** /  1

 Constructing Fock-matrix...
 
 Pipek-Mezey localization...
 Step  Convergence
   1   0.578650115148
   2   0.079192965183
   3   0.000015736162
   4   0.000000000172
   5   0.000000000000
 CPU time [min]:     0.720                   Wall time [min]:     0.028
 
 Constructing local fitting domains...
 Local fitting domains are unchanged.
 
 First step of Coulomb + first step of exchange...
 Exchange contribution is evaluated for MOs 1 to 7.
   1% done.
  26% done.
  38% done.
  68% done.
 100% done.
 CPU time [min]:     0.743                   Wall time [min]:     0.029
 
 Fitting and assembly step of exchange...
 CPU time [min]:     0.743                   Wall time [min]:     0.029
 
 Second step of Coulomb...
   1% done.
  26% done.
  38% done.
  68% done.
 100% done.
 CPU time [min]:     0.750                   Wall time [min]:     0.029
 
 Gradient norm:      4.8018E-07
 DIIS is running in this iteration step.
 RMS of [F,P]:                                         0.00000002581640
 RMS of difference density:                            0.00000003937729
 Gap [au]:  0.69303804
 ALPHA OCC:   7
 BETA  OCC:   7
 
 ***HARTREE-FOCK ENERGY IN STEP  10 IS       -112.6428471907601079 [AU]
 
 Step comparison  Energy Drift [au]  DIIS error drift  Gradient drift
        9            4.6896E-12         1.4713E-07       2.1497E-06
 ======================================================================
 
 SUCCESS...
 THE SCF ITERATION HAS CONVERGED!
 
                   A   
 FINAL ALPHA OCC:   7
 FINAL BETA  OCC:   7
 
 ***FINAL HARTREE-FOCK ENERGY:       -112.6428471907601079 [AU]
 
 Orbital energies [au]:
      Irrep         Alpha          Beta
    1   A        -20.667304     -20.667304
    2   A        -11.376668     -11.376668
    3   A         -1.496432      -1.496432
    4   A         -0.795847      -0.795847
    5   A         -0.634881      -0.634881
    6   A         -0.634881      -0.634881
    7   A         -0.553304      -0.553304
 
    8   A          0.139734       0.139734
    9   A          0.139734       0.139734
   10   A          0.353769       0.353769
   11   A          0.557535       0.557535
   12   A          0.669619       0.669619
   13   A          0.669619       0.669619
   14   A          0.974780       0.974780
   15   A          1.119672       1.119672
   16   A          1.239262       1.239262
   17   A          1.239262       1.239262
   18   A          1.499078       1.499078
   19   A          1.885685       1.885685
   20   A          1.885685       1.885685
   21   A          1.953392       1.953392
   22   A          1.953392       1.953392
   23   A          2.729527       2.729527
   24   A          2.959901       2.959901
   25   A          2.959901       2.959901
   26   A          3.530710       3.530710
   27   A          3.530710       3.530710
   28   A          3.982079       3.982079
 
 RETURNING FROM SCF ALGORITHM
 ======================================================================

 ************************ 2023-04-26 04:25:16 *************************
 Executing integ...

 Allocation of 200.0 Gbytes of memory...
 
 
 Number of atoms:                  2
 Charge:                           0
 Number of electrons:             14
 Number of core electrons:         4
 Spin multiplicity:                1
 
                 Cartesian coordinates [bohr]      Atomic mass [AMU]  Z
   1  C     0.00000000    0.00000000    4.59825988    12.000000       6
   2  O     0.00000000    0.00000000    6.76543524    15.994915       8
 
 This molecule is linear.
 
 Rotational constants [cm-1]: 
      1.869485479558
 
 Point group: Cxv 
 Computational point group: C1  
 
 Cartesian coordinates in standard orientation [bohr]
   1  C     0.00000000    0.00000000   -1.23821721
   2  O     0.00000000    0.00000000    0.92895816
 
 Nuclear repulsion energy [au]:         22.148646010002
 
 
 Basis set information:
 
 Maximum angular momentum: g
 Maximum number of contracted Gaussians:   10
 Maximum number of primitive Gaussians:    14
 Spherical harmonic GTOs are used.
 
 
 Conventional basis set:
 
   1  C  aug-cc-pvtz [ 11s 6p 3d 2f | 5s 4p 3d 2f ]
   2  O  aug-cc-pvtz [ 11s 6p 3d 2f | 5s 4p 3d 2f ]
 
 Basis functions:
            1             2             3             4             5             6             7             8             9            10
    0    1C1s          1C2s          1C3s          1C4s          1C5s          1C1pz         1C1py         1C1px         1C2pz         1C2py     
    1    1C2px         1C3pz         1C3py         1C3px         1C4pz         1C4py         1C4px         1C1d-2        1C1d-1        1C1d0     
    2    1C1d+1        1C1d+2        1C2d-2        1C2d-1        1C2d0         1C2d+1        1C2d+2        1C3d-2        1C3d-1        1C3d0     
    3    1C3d+1        1C3d+2        1C1f-3        1C1f-2        1C1f-1        1C1f0         1C1f+1        1C1f+2        1C1f+3        1C2f-3    
    4    1C2f-2        1C2f-1        1C2f0         1C2f+1        1C2f+2        1C2f+3        2O1s          2O2s          2O3s          2O4s      
    5    2O5s          2O1pz         2O1py         2O1px         2O2pz         2O2py         2O2px         2O3pz         2O3py         2O3px     
    6    2O4pz         2O4py         2O4px         2O1d-2        2O1d-1        2O1d0         2O1d+1        2O1d+2        2O2d-2        2O2d-1    
    7    2O2d0         2O2d+1        2O2d+2        2O3d-2        2O3d-1        2O3d0         2O3d+1        2O3d+2        2O1f-3        2O1f-2    
    8    2O1f-1        2O1f0         2O1f+1        2O1f+2        2O1f+3        2O2f-3        2O2f-2        2O2f-1        2O2f0         2O2f+1    
    9    2O2f+2        2O2f+3    
 
 Maximum number of basis functions per shell:   15
 Total number of basis functions:     92
 
 
 Fitting basis set for the SCF calculation:
 
   1  C  def2-qzvpp-ri-jk [ 14s 10p 6d 2f 1g | 10s 8p 5d 1f 1g ]
   2  O  def2-qzvpp-ri-jk [ 14s 10p 6d 2f 1g | 10s 8p 4d 2f 1g ]
 
 Basis functions:
            1             2             3             4             5             6             7             8             9            10
    0    1C1s          1C2s          1C3s          1C4s          1C5s          1C6s          1C7s          1C8s          1C9s          1C10s     
    1    1C1pz         1C1py         1C1px         1C2pz         1C2py         1C2px         1C3pz         1C3py         1C3px         1C4pz     
    2    1C4py         1C4px         1C5pz         1C5py         1C5px         1C6pz         1C6py         1C6px         1C7pz         1C7py     
    3    1C7px         1C8pz         1C8py         1C8px         1C1d-2        1C1d-1        1C1d0         1C1d+1        1C1d+2        1C2d-2    
    4    1C2d-1        1C2d0         1C2d+1        1C2d+2        1C3d-2        1C3d-1        1C3d0         1C3d+1        1C3d+2        1C4d-2    
    5    1C4d-1        1C4d0         1C4d+1        1C4d+2        1C5d-2        1C5d-1        1C5d0         1C5d+1        1C5d+2        1C1f-3    
    6    1C1f-2        1C1f-1        1C1f0         1C1f+1        1C1f+2        1C1f+3        1C1g-4        1C1g-3        1C1g-2        1C1g-1    
    7    1C1g0         1C1g+1        1C1g+2        1C1g+3        1C1g+4        2O1s          2O2s          2O3s          2O4s          2O5s      
    8    2O6s          2O7s          2O8s          2O9s          2O10s         2O1pz         2O1py         2O1px         2O2pz         2O2py     
    9    2O2px         2O3pz         2O3py         2O3px         2O4pz         2O4py         2O4px         2O5pz         2O5py         2O5px     
   10    2O6pz         2O6py         2O6px         2O7pz         2O7py         2O7px         2O8pz         2O8py         2O8px         2O1d-2    
   11    2O1d-1        2O1d0         2O1d+1        2O1d+2        2O2d-2        2O2d-1        2O2d0         2O2d+1        2O2d+2        2O3d-2    
   12    2O3d-1        2O3d0         2O3d+1        2O3d+2        2O4d-2        2O4d-1        2O4d0         2O4d+1        2O4d+2        2O1f-3    
   13    2O1f-2        2O1f-1        2O1f0         2O1f+1        2O1f+2        2O1f+3        2O2f-3        2O2f-2        2O2f-1        2O2f0     
   14    2O2f+1        2O2f+2        2O2f+3        2O1g-4        2O1g-3        2O1g-2        2O1g-1        2O1g0         2O1g+1        2O1g+2    
   15    2O1g+3        2O1g+4    
 
 Maximum number of basis functions per shell:   25
 Total number of basis functions:    152
 
 
 Fitting basis set for the correlation calculation:
 
   1  C  aug-cc-pvtz-ri [ 9s 7p 6d 4f 2g | 9s 7p 6d 4f 2g ]
   2  O  aug-cc-pvtz-ri [ 9s 7p 6d 4f 2g | 9s 7p 6d 4f 2g ]
 
 Basis functions:
            1             2             3             4             5             6             7             8             9            10
    0    1C1s          1C2s          1C3s          1C4s          1C5s          1C6s          1C7s          1C8s          1C9s          1C1pz     
    1    1C1py         1C1px         1C2pz         1C2py         1C2px         1C3pz         1C3py         1C3px         1C4pz         1C4py     
    2    1C4px         1C5pz         1C5py         1C5px         1C6pz         1C6py         1C6px         1C7pz         1C7py         1C7px     
    3    1C1d-2        1C1d-1        1C1d0         1C1d+1        1C1d+2        1C2d-2        1C2d-1        1C2d0         1C2d+1        1C2d+2    
    4    1C3d-2        1C3d-1        1C3d0         1C3d+1        1C3d+2        1C4d-2        1C4d-1        1C4d0         1C4d+1        1C4d+2    
    5    1C5d-2        1C5d-1        1C5d0         1C5d+1        1C5d+2        1C6d-2        1C6d-1        1C6d0         1C6d+1        1C6d+2    
    6    1C1f-3        1C1f-2        1C1f-1        1C1f0         1C1f+1        1C1f+2        1C1f+3        1C2f-3        1C2f-2        1C2f-1    
    7    1C2f0         1C2f+1        1C2f+2        1C2f+3        1C3f-3        1C3f-2        1C3f-1        1C3f0         1C3f+1        1C3f+2    
    8    1C3f+3        1C4f-3        1C4f-2        1C4f-1        1C4f0         1C4f+1        1C4f+2        1C4f+3        1C1g-4        1C1g-3    
    9    1C1g-2        1C1g-1        1C1g0         1C1g+1        1C1g+2        1C1g+3        1C1g+4        1C2g-4        1C2g-3        1C2g-2    
   10    1C2g-1        1C2g0         1C2g+1        1C2g+2        1C2g+3        1C2g+4        2O1s          2O2s          2O3s          2O4s      
   11    2O5s          2O6s          2O7s          2O8s          2O9s          2O1pz         2O1py         2O1px         2O2pz         2O2py     
   12    2O2px         2O3pz         2O3py         2O3px         2O4pz         2O4py         2O4px         2O5pz         2O5py         2O5px     
   13    2O6pz         2O6py         2O6px         2O7pz         2O7py         2O7px         2O1d-2        2O1d-1        2O1d0         2O1d+1    
   14    2O1d+2        2O2d-2        2O2d-1        2O2d0         2O2d+1        2O2d+2        2O3d-2        2O3d-1        2O3d0         2O3d+1    
   15    2O3d+2        2O4d-2        2O4d-1        2O4d0         2O4d+1        2O4d+2        2O5d-2        2O5d-1        2O5d0         2O5d+1    
   16    2O5d+2        2O6d-2        2O6d-1        2O6d0         2O6d+1        2O6d+2        2O1f-3        2O1f-2        2O1f-1        2O1f0     
   17    2O1f+1        2O1f+2        2O1f+3        2O2f-3        2O2f-2        2O2f-1        2O2f0         2O2f+1        2O2f+2        2O2f+3    
   18    2O3f-3        2O3f-2        2O3f-1        2O3f0         2O3f+1        2O3f+2        2O3f+3        2O4f-3        2O4f-2        2O4f-1    
   19    2O4f0         2O4f+1        2O4f+2        2O4f+3        2O1g-4        2O1g-3        2O1g-2        2O1g-1        2O1g0         2O1g+1    
   20    2O1g+2        2O1g+3        2O1g+4        2O2g-4        2O2g-3        2O2g-2        2O2g-1        2O2g0         2O2g+1        2O2g+2    
   21    2O2g+3        2O2g+4    
 
 Maximum number of basis functions per shell:   30
 Total number of basis functions:    212
 
 
 Old basis set for SCF restart
 
   1  C  def2-svp [ 7s 4p 1d | 3s 2p 1d ]
   2  O  def2-svp [ 7s 4p 1d | 3s 2p 1d ]
 
 Basis functions:
            1             2             3             4             5             6             7             8             9            10
    0    1C1s          1C2s          1C3s          1C1pz         1C1py         1C1px         1C2pz         1C2py         1C2px         1C1d-2    
    1    1C1d-1        1C1d0         1C1d+1        1C1d+2        2O1s          2O2s          2O3s          2O1pz         2O1py         2O1px     
    2    2O2pz         2O2py         2O2px         2O1d-2        2O1d-1        2O1d0         2O1d+1        2O1d+2    
 
 Maximum number of basis functions per shell:   30
 Total number of basis functions:     28
 
 
 Character table for point group C1:
 
          E  
    A     1
 
 Number of basis functions per irrep:
    A      92
 
 
 Calculation of overlap integrals...
 CPU time [min]:     0.077                   Wall time [min]:     0.005
 
 Calculation of the square root of the overlap matrix...
 Minimum eigenvalue of the overlap matrix: 0.507848E-03
 CPU time [min]:     0.094                   Wall time [min]:     0.006
 
 Calculation of kinetic energy integrals...
 CPU time [min]:     0.095                   Wall time [min]:     0.006
 Calculation of dipole moment integrals...
 CPU time [min]:     0.095                   Wall time [min]:     0.006
 Calculation of nuclear attraction integrals...
 CPU time [min]:     0.098                   Wall time [min]:     0.006
 Calculation of overlap integrals...
 CPU time [min]:     0.099                   Wall time [min]:     0.006
 
 Calculation of prescreening integrals...
 CPU time [min]:     0.165                   Wall time [min]:     0.008
 
 Calculation of two-center Coulomb integrals...
   5% done.
  19% done.
  31% done.
  52% done.
  72% done.
  89% done.
 100% done.
 CPU time [min]:     0.172                   Wall time [min]:     0.009
 
 Cholesky decomposition of the two-center matrix...
 Reciprocal of the condition number:  0.440129E-04
 CPU time [min]:     0.174                   Wall time [min]:     0.009
 

 ************************ 2023-04-26 04:25:17 *************************
 Executing scf...

 @scfsetup: integrals calculated directly
            mrcc/integ direct run
 @scfsetup: calculating on full matrices
            not using symmetry adapted basis
 @scfsetup: diis switched on
 @scfsetup: number of steps to extrapolate from  10
 @scfsetup: tolerance in energy deviation    0.100000E-05
            tolerance in density deviation    0.100000E-06
 @scfsetup: maximum number of iterations:1000
 @scfsetup: restricted closed shell hf calc
 @scfsetup: restarting scf from SCFDENSITIES file
 @scfsetup: occupation set:
            from initial orbitals
 @scfsetup: Parameter-set for SCF acceleration: normal
 @scfsetup: diis runs from iteration:   2
 @scfsetup: diis runs to iteration:1000
 @scfsetup: diis runs in every iteration
 @scfsetup: diiswatch is disabled                   
 @scfsetup: diis dtol criteria to switch on:      0.0000E+00
           (or the iteration number below is reached)
 @scfsetup: static damping scheme
            iteration step criteria to turn damping off: 3
 @scfsetup: dynamic level shifting
            tolarance in HOMO-LUMO gap:  0.200
            tolarance in density deviation:     0.0000E+00
            iteration step criteria to turn level shifting off: 8
 Allocation of 200.0 Gbytes of memory...
 ======================================================================
 ITERATION STEP   1
 CPU time [min]:     0.026                   Wall time [min]:     0.008
 

 SCF control                  : initial
 Damping factor/level shift   : 0.000/0.200
 DIIS [start/end/frequency]   :   2 /*** /  1

 Constructing Fock-matrix...
 
 Pipek-Mezey localization...
 Step  Convergence
   1   1.264511672688
   2   0.113008103549
   3   0.000547687986
   4   0.000000010668
 CPU time [min]:     0.045                   Wall time [min]:     0.008
 
 Constructing local fitting domains...
 Maximum number of atoms in fitting domains:    2
 Average number of atoms in fitting domains:    2.0
 
 First step of Coulomb + first step of exchange...
 Exchange contribution is evaluated for MOs 1 to 7.
   4% done.
  25% done.
  47% done.
  72% done.
 100% done.
 CPU time [min]:     0.190                   Wall time [min]:     0.013
 
 Fitting and assembly step of exchange...
 CPU time [min]:     0.192                   Wall time [min]:     0.013
 
 Second step of Coulomb...
   4% done.
  25% done.
  47% done.
  72% done.
 100% done.
 CPU time [min]:     0.203                   Wall time [min]:     0.013
 
 Gradient norm:      3.7037E-01
 RMS of [F,P]:                                         0.00909649167085
 RMS of difference density:                            0.01910882301505
 Gap [au]:  0.62952183
 ALPHA OCC:   7
 BETA  OCC:   7
 
 ***HARTREE-FOCK ENERGY IN STEP   1 IS       -112.7567905044580385 [AU]
 ======================================================================
 ITERATION STEP   2
 CPU time [min]:     0.214                   Wall time [min]:     0.015
 

 SCF control                  : diis
 Damping factor/level shift   : 0.000/0.000
 DIIS [start/end/frequency]   :   2 /*** /  1

 Constructing Fock-matrix...
 
 Pipek-Mezey localization...
 Step  Convergence
   1   0.070822453998
   2   0.078830260567
   3   0.001556320897
   4   0.000000079765
 CPU time [min]:     0.233                   Wall time [min]:     0.016
 
 Constructing local fitting domains...
 Maximum number of atoms in fitting domains:    2
 Average number of atoms in fitting domains:    2.0
 
 First step of Coulomb + first step of exchange...
 Exchange contribution is evaluated for MOs 1 to 7.
   4% done.
  25% done.
  47% done.
  72% done.
 100% done.
 CPU time [min]:     0.268                   Wall time [min]:     0.017
 
 Fitting and assembly step of exchange...
 CPU time [min]:     0.268                   Wall time [min]:     0.017
 
 Second step of Coulomb...
   4% done.
  25% done.
  47% done.
  72% done.
 100% done.
 CPU time [min]:     0.278                   Wall time [min]:     0.017
 
 Gradient norm:      1.7151E-02
 DIIS is running in this iteration step.
 RMS of [F,P]:                                         0.00060412265526
 RMS of difference density:                            0.00125282207130
 Gap [au]:  0.62435930
 ALPHA OCC:   7
 BETA  OCC:   7
 
 ***HARTREE-FOCK ENERGY IN STEP   2 IS       -112.7779589434427265 [AU]
 
 Step comparison  Energy Drift [au]  DIIS error drift  Gradient drift
        1            2.1168E-02         8.4924E-03       3.5322E-01
        2            1.1278E+02         1.0000E-07       3.5322E-01
 ======================================================================
 ITERATION STEP   3
 CPU time [min]:     0.287                   Wall time [min]:     0.017
 

 SCF control                  : diis
 Damping factor/level shift   : 0.000/0.000
 DIIS [start/end/frequency]   :   2 /*** /  1

 Constructing Fock-matrix...
 
 Pipek-Mezey localization...
 Step  Convergence
   1   0.077763599127
   2   0.087741119998
   3   0.002200055404
   4   0.000000009229
 CPU time [min]:     0.306                   Wall time [min]:     0.018
 
 Constructing local fitting domains...
 Local fitting domains are unchanged.
 
 First step of Coulomb + first step of exchange...
 Exchange contribution is evaluated for MOs 1 to 7.
   4% done.
  25% done.
  47% done.
  72% done.
 100% done.
 CPU time [min]:     0.336                   Wall time [min]:     0.019
 
 Fitting and assembly step of exchange...
 CPU time [min]:     0.336                   Wall time [min]:     0.019
 
 Second step of Coulomb...
   4% done.
  25% done.
  47% done.
  72% done.
 100% done.
 CPU time [min]:     0.346                   Wall time [min]:     0.019
 
 Gradient norm:      5.3350E-03
 DIIS is running in this iteration step.
 RMS of [F,P]:                                         0.00014859447808
 RMS of difference density:                            0.00023184453662
 Gap [au]:  0.62614784
 ALPHA OCC:   7
 BETA  OCC:   7
 
 ***HARTREE-FOCK ENERGY IN STEP   3 IS       -112.7783251632608881 [AU]
 
 Step comparison  Energy Drift [au]  DIIS error drift  Gradient drift
        2            3.6622E-04         4.5553E-04       1.1816E-02
 ======================================================================
 ITERATION STEP   4
 CPU time [min]:     0.362                   Wall time [min]:     0.020
 

 SCF control                  : diis
 Damping factor/level shift   : 0.000/0.000
 DIIS [start/end/frequency]   :   2 /*** /  1

 Constructing Fock-matrix...
 
 Pipek-Mezey localization...
 Step  Convergence
   1   0.557906200687
   2   0.075907397788
   3   0.000290002100
   4   0.000000002553
   5   0.000000000000
 CPU time [min]:     0.381                   Wall time [min]:     0.020
 
 Constructing local fitting domains...
 Local fitting domains are unchanged.
 
 First step of Coulomb + first step of exchange...
 Exchange contribution is evaluated for MOs 1 to 7.
   4% done.
  25% done.
  47% done.
  72% done.
 100% done.
 CPU time [min]:     0.411                   Wall time [min]:     0.021
 
 Fitting and assembly step of exchange...
 CPU time [min]:     0.411                   Wall time [min]:     0.021
 
 Second step of Coulomb...
   4% done.
  25% done.
  47% done.
  72% done.
 100% done.
 CPU time [min]:     0.421                   Wall time [min]:     0.021
 
 Gradient norm:      2.9761E-03
 DIIS is running in this iteration step.
 RMS of [F,P]:                                         0.00007982553814
 RMS of difference density:                            0.00007544542818
 Gap [au]:  0.62644554
 ALPHA OCC:   7
 BETA  OCC:   7
 
 ***HARTREE-FOCK ENERGY IN STEP   4 IS       -112.7783442567643988 [AU]
 
 Step comparison  Energy Drift [au]  DIIS error drift  Gradient drift
        3            1.9094E-05         6.8769E-05       2.3589E-03
 ======================================================================
 ITERATION STEP   5
 CPU time [min]:     0.434                   Wall time [min]:     0.022
 

 SCF control                  : diis
 Damping factor/level shift   : 0.000/0.000
 DIIS [start/end/frequency]   :   2 /*** /  1

 Constructing Fock-matrix...
 
 Pipek-Mezey localization...
 Step  Convergence
   1   0.570163524385
   2   0.233169180049
   3   0.003099147499
   4   0.000000042348
   5   0.000000000000
 CPU time [min]:     0.453                   Wall time [min]:     0.022
 
 Constructing local fitting domains...
 Local fitting domains are unchanged.
 
 First step of Coulomb + first step of exchange...
 Exchange contribution is evaluated for MOs 1 to 7.
   4% done.
  25% done.
  47% done.
  72% done.
 100% done.
 CPU time [min]:     0.482                   Wall time [min]:     0.023
 
 Fitting and assembly step of exchange...
 CPU time [min]:     0.482                   Wall time [min]:     0.023
 
 Second step of Coulomb...
   4% done.
  25% done.
  47% done.
  72% done.
 100% done.
 CPU time [min]:     0.492                   Wall time [min]:     0.023
 
 Gradient norm:      8.1304E-04
 DIIS is running in this iteration step.
 RMS of [F,P]:                                         0.00002167275030
 RMS of difference density:                            0.00002052241217
 Gap [au]:  0.62624051
 ALPHA OCC:   7
 BETA  OCC:   7
 
 ***HARTREE-FOCK ENERGY IN STEP   5 IS       -112.7783490073303057 [AU]
 
 Step comparison  Energy Drift [au]  DIIS error drift  Gradient drift
        4            4.7506E-06         5.8153E-05       2.1630E-03
 ======================================================================
 ITERATION STEP   6
 CPU time [min]:     0.500                   Wall time [min]:     0.023
 

 SCF control                  : diis
 Damping factor/level shift   : 0.000/0.000
 DIIS [start/end/frequency]   :   2 /*** /  1

 Constructing Fock-matrix...
 
 Pipek-Mezey localization...
 Step  Convergence
   1   0.553917643000
   2   0.082529329887
   3   0.001444104422
   4   0.000000001136
   5   0.000000000000
 CPU time [min]:     0.519                   Wall time [min]:     0.024
 
 Constructing local fitting domains...
 Local fitting domains are unchanged.
 
 First step of Coulomb + first step of exchange...
 Exchange contribution is evaluated for MOs 1 to 7.
   4% done.
  25% done.
  47% done.
  72% done.
 100% done.
 CPU time [min]:     0.559                   Wall time [min]:     0.025
 
 Fitting and assembly step of exchange...
 CPU time [min]:     0.559                   Wall time [min]:     0.025
 
 Second step of Coulomb...
   4% done.
  25% done.
  47% done.
  72% done.
 100% done.
 CPU time [min]:     0.569                   Wall time [min]:     0.025
 
 Gradient norm:      1.1711E-04
 DIIS is running in this iteration step.
 RMS of [F,P]:                                         0.00000264580342
 RMS of difference density:                            0.00000447772901
 Gap [au]:  0.62628752
 ALPHA OCC:   7
 BETA  OCC:   7
 
 ***HARTREE-FOCK ENERGY IN STEP   6 IS       -112.7783494225581364 [AU]
 
 Step comparison  Energy Drift [au]  DIIS error drift  Gradient drift
        5            4.1523E-07         1.9027E-05       6.9593E-04
 ======================================================================
 ITERATION STEP   7
 CPU time [min]:     0.578                   Wall time [min]:     0.026
 

 SCF control                  : diis
 Damping factor/level shift   : 0.000/0.000
 DIIS [start/end/frequency]   :   2 /*** /  1

 Constructing Fock-matrix...
 
 Pipek-Mezey localization...
 Step  Convergence
   1   0.231833721765
   2   0.131547330974
   3   0.008335035572
   4   0.000001884579
   5   0.000000000000
 CPU time [min]:     0.597                   Wall time [min]:     0.026
 
 Constructing local fitting domains...
 Local fitting domains are unchanged.
 
 First step of Coulomb + first step of exchange...
 Exchange contribution is evaluated for MOs 1 to 7.
   4% done.
  25% done.
  47% done.
  72% done.
 100% done.
 CPU time [min]:     0.626                   Wall time [min]:     0.027
 
 Fitting and assembly step of exchange...
 CPU time [min]:     0.627                   Wall time [min]:     0.027
 
 Second step of Coulomb...
   4% done.
  25% done.
  47% done.
  72% done.
 100% done.
 CPU time [min]:     0.637                   Wall time [min]:     0.027
 
 Gradient norm:      2.5212E-05
 DIIS is running in this iteration step.
 RMS of [F,P]:                                         0.00000047225078
 RMS of difference density:                            0.00000086150282
 Gap [au]:  0.62628636
 ALPHA OCC:   7
 BETA  OCC:   7
 
 ***HARTREE-FOCK ENERGY IN STEP   7 IS       -112.7783494328461700 [AU]
 
 Step comparison  Energy Drift [au]  DIIS error drift  Gradient drift
        6            1.0288E-08         2.1736E-06       9.1901E-05
 ======================================================================
 ITERATION STEP   8
 CPU time [min]:     0.645                   Wall time [min]:     0.028
 

 SCF control                  : diis
 Damping factor/level shift   : 0.000/0.000
 DIIS [start/end/frequency]   :   2 /*** /  1

 Constructing Fock-matrix...
 
 Pipek-Mezey localization...
 Step  Convergence
   1   0.563395248348
   2   0.078558650773
   3   0.001403996876
   4   0.000000000883
   5   0.000000000000
 CPU time [min]:     0.664                   Wall time [min]:     0.028
 
 Constructing local fitting domains...
 Local fitting domains are unchanged.
 
 First step of Coulomb + first step of exchange...
 Exchange contribution is evaluated for MOs 1 to 7.
   4% done.
  25% done.
  47% done.
  72% done.
 100% done.
 CPU time [min]:     0.693                   Wall time [min]:     0.029
 
 Fitting and assembly step of exchange...
 CPU time [min]:     0.693                   Wall time [min]:     0.029
 
 Second step of Coulomb...
   4% done.
  25% done.
  47% done.
  72% done.
 100% done.
 CPU time [min]:     0.703                   Wall time [min]:     0.029
 
 Gradient norm:      5.0486E-06
 DIIS is running in this iteration step.
 RMS of [F,P]:                                         0.00000010894731
 RMS of difference density:                            0.00000021040358
 Gap [au]:  0.62628703
 ALPHA OCC:   7
 BETA  OCC:   7
 
 ***HARTREE-FOCK ENERGY IN STEP   8 IS       -112.7783494333055927 [AU]
 
 Step comparison  Energy Drift [au]  DIIS error drift  Gradient drift
        7            4.5942E-10         3.6330E-07       2.0163E-05
 ======================================================================
 ITERATION STEP   9
 CPU time [min]:     0.711                   Wall time [min]:     0.029
 

 SCF control                  : diis
 Damping factor/level shift   : 0.000/0.000
 DIIS [start/end/frequency]   :   2 /*** /  1

 Constructing Fock-matrix...
 
 Pipek-Mezey localization...
 Step  Convergence
   1   0.563446604237
   2   0.082663060898
   3   0.001426373545
   4   0.000000001310
   5   0.000000000000
 CPU time [min]:     0.730                   Wall time [min]:     0.030
 
 Constructing local fitting domains...
 Local fitting domains are unchanged.
 
 First step of Coulomb + first step of exchange...
 Exchange contribution is evaluated for MOs 1 to 7.
   4% done.
  25% done.
  47% done.
  72% done.
 100% done.
 CPU time [min]:     0.758                   Wall time [min]:     0.031
 
 Fitting and assembly step of exchange...
 CPU time [min]:     0.758                   Wall time [min]:     0.031
 
 Second step of Coulomb...
   4% done.
  25% done.
  47% done.
  72% done.
 100% done.
 CPU time [min]:     0.768                   Wall time [min]:     0.031
 
 Gradient norm:      6.4955E-07
 DIIS is running in this iteration step.
 RMS of [F,P]:                                         0.00000001501687
 RMS of difference density:                            0.00000002716013
 Gap [au]:  0.62628704
 ALPHA OCC:   7
 BETA  OCC:   7
 
 ***HARTREE-FOCK ENERGY IN STEP   9 IS       -112.7783494333268379 [AU]
 
 Step comparison  Energy Drift [au]  DIIS error drift  Gradient drift
        8            2.1245E-11         9.3930E-08       4.3990E-06
 ======================================================================
 
 SUCCESS...
 THE SCF ITERATION HAS CONVERGED!
 
                   A   
 FINAL ALPHA OCC:   7
 FINAL BETA  OCC:   7
 
 ***FINAL HARTREE-FOCK ENERGY:       -112.7783494333268379 [AU]
 
 Orbital energies [au]:
      Irrep         Alpha          Beta
    1   A        -20.668874     -20.668874
    2   A        -11.370330     -11.370330
    3   A         -1.510316      -1.510316
    4   A         -0.803345      -0.803345
    5   A         -0.632534      -0.632534
    6   A         -0.632534      -0.632534
    7   A         -0.557017      -0.557017
 
    8   A          0.069270       0.069270
    9   A          0.069270       0.069270
   10   A          0.069600       0.069600
   11   A          0.087359       0.087359
   12   A          0.148868       0.148868
   13   A          0.148868       0.148868
   14   A          0.185222       0.185222
   15   A          0.198113       0.198113
   16   A          0.198113       0.198113
   17   A          0.268992       0.268992
   18   A          0.296654       0.296654
   19   A          0.296654       0.296654
   20   A          0.391689       0.391689
   21   A          0.412318       0.412318
   22   A          0.412318       0.412318
   23   A          0.499485       0.499485
   24   A          0.508410       0.508410
   25   A          0.508410       0.508410
   26   A          0.669564       0.669564
   27   A          0.726233       0.726233
   28   A          0.726233       0.726233
   29   A          0.777769       0.777769
   30   A          0.841280       0.841280
   31   A          0.841280       0.841280
   32   A          1.002040       1.002040
   33   A          1.046696       1.046696
   34   A          1.046696       1.046696
   35   A          1.076483       1.076483
   36   A          1.076483       1.076483
   37   A          1.085800       1.085800
   38   A          1.085800       1.085800
   39   A          1.222267       1.222267
   40   A          1.222267       1.222267
   41   A          1.249270       1.249270
   42   A          1.277367       1.277367
   43   A          1.277367       1.277367
   44   A          1.381384       1.381384
   45   A          1.484219       1.484219
   46   A          1.484219       1.484219
   47   A          1.521790       1.521790
   48   A          2.145251       2.145251
   49   A          2.145251       2.145251
   50   A          2.181488       2.181488
   51   A          2.181488       2.181488
   52   A          2.321029       2.321029
   53   A          2.321029       2.321029
   54   A          2.350381       2.350381
   55   A          2.429244       2.429244
   56   A          2.557007       2.557007
   57   A          2.557007       2.557007
   58   A          2.578028       2.578028
   59   A          2.578028       2.578028
   60   A          2.674482       2.674482
   61   A          2.979680       2.979680
   62   A          2.979680       2.979680
   63   A          3.398458       3.398458
   64   A          3.398458       3.398458
   65   A          3.422118       3.422118
   66   A          3.422118       3.422118
   67   A          3.466592       3.466592
   68   A          3.619033       3.619033
   69   A          3.619033       3.619033
   70   A          3.731554       3.731554
   71   A          3.731554       3.731554
   72   A          3.975301       3.975301
   73   A          3.975301       3.975301
   74   A          4.002420       4.002420
   75   A          4.367085       4.367085
   76   A          5.187263       5.187263
   77   A          5.187263       5.187263
   78   A          5.286730       5.286730
   79   A          6.477741       6.477741
   80   A          6.477741       6.477741
   81   A          6.749398       6.749398
   82   A          6.749398       6.749398
   83   A          7.030641       7.030641
   84   A          7.030641       7.030641
   85   A          7.079656       7.079656
   86   A          7.079656       7.079656
   87   A          7.178277       7.178277
   88   A          7.437602       7.437602
   89   A          7.437602       7.437602
   90   A          7.590033       7.590033
   91   A         12.400009      12.400009
   92   A         14.847940      14.847940
 
 RETURNING FROM SCF ALGORITHM
 ======================================================================

 ************************ 2023-04-26 04:25:19 *************************
 Executing integ...

 Allocation of 200.0 Gbytes of memory...
 
 
 Basis set information:
 
 Maximum angular momentum: g
 Maximum number of contracted Gaussians:   10
 Maximum number of primitive Gaussians:    14
 Spherical harmonic GTOs are used.
 
 
 Conventional basis set:
 
   1  C  aug-cc-pvtz [ 11s 6p 3d 2f | 5s 4p 3d 2f ]
   2  O  aug-cc-pvtz [ 11s 6p 3d 2f | 5s 4p 3d 2f ]
 
 Basis functions:
            1             2             3             4             5             6             7             8             9            10
    0    1C1s          1C2s          1C3s          1C4s          1C5s          1C1pz         1C1py         1C1px         1C2pz         1C2py     
    1    1C2px         1C3pz         1C3py         1C3px         1C4pz         1C4py         1C4px         1C1d-2        1C1d-1        1C1d0     
    2    1C1d+1        1C1d+2        1C2d-2        1C2d-1        1C2d0         1C2d+1        1C2d+2        1C3d-2        1C3d-1        1C3d0     
    3    1C3d+1        1C3d+2        1C1f-3        1C1f-2        1C1f-1        1C1f0         1C1f+1        1C1f+2        1C1f+3        1C2f-3    
    4    1C2f-2        1C2f-1        1C2f0         1C2f+1        1C2f+2        1C2f+3        2O1s          2O2s          2O3s          2O4s      
    5    2O5s          2O1pz         2O1py         2O1px         2O2pz         2O2py         2O2px         2O3pz         2O3py         2O3px     
    6    2O4pz         2O4py         2O4px         2O1d-2        2O1d-1        2O1d0         2O1d+1        2O1d+2        2O2d-2        2O2d-1    
    7    2O2d0         2O2d+1        2O2d+2        2O3d-2        2O3d-1        2O3d0         2O3d+1        2O3d+2        2O1f-3        2O1f-2    
    8    2O1f-1        2O1f0         2O1f+1        2O1f+2        2O1f+3        2O2f-3        2O2f-2        2O2f-1        2O2f0         2O2f+1    
    9    2O2f+2        2O2f+3    
 
 Maximum number of basis functions per shell:   15
 Total number of basis functions:     92
 
 
 Fitting basis set for the SCF calculation:
 
   1  C  def2-qzvpp-ri-jk [ 14s 10p 6d 2f 1g | 10s 8p 5d 1f 1g ]
   2  O  def2-qzvpp-ri-jk [ 14s 10p 6d 2f 1g | 10s 8p 4d 2f 1g ]
 
 Basis functions:
            1             2             3             4             5             6             7             8             9            10
    0    1C1s          1C2s          1C3s          1C4s          1C5s          1C6s          1C7s          1C8s          1C9s          1C10s     
    1    1C1pz         1C1py         1C1px         1C2pz         1C2py         1C2px         1C3pz         1C3py         1C3px         1C4pz     
    2    1C4py         1C4px         1C5pz         1C5py         1C5px         1C6pz         1C6py         1C6px         1C7pz         1C7py     
    3    1C7px         1C8pz         1C8py         1C8px         1C1d-2        1C1d-1        1C1d0         1C1d+1        1C1d+2        1C2d-2    
    4    1C2d-1        1C2d0         1C2d+1        1C2d+2        1C3d-2        1C3d-1        1C3d0         1C3d+1        1C3d+2        1C4d-2    
    5    1C4d-1        1C4d0         1C4d+1        1C4d+2        1C5d-2        1C5d-1        1C5d0         1C5d+1        1C5d+2        1C1f-3    
    6    1C1f-2        1C1f-1        1C1f0         1C1f+1        1C1f+2        1C1f+3        1C1g-4        1C1g-3        1C1g-2        1C1g-1    
    7    1C1g0         1C1g+1        1C1g+2        1C1g+3        1C1g+4        2O1s          2O2s          2O3s          2O4s          2O5s      
    8    2O6s          2O7s          2O8s          2O9s          2O10s         2O1pz         2O1py         2O1px         2O2pz         2O2py     
    9    2O2px         2O3pz         2O3py         2O3px         2O4pz         2O4py         2O4px         2O5pz         2O5py         2O5px     
   10    2O6pz         2O6py         2O6px         2O7pz         2O7py         2O7px         2O8pz         2O8py         2O8px         2O1d-2    
   11    2O1d-1        2O1d0         2O1d+1        2O1d+2        2O2d-2        2O2d-1        2O2d0         2O2d+1        2O2d+2        2O3d-2    
   12    2O3d-1        2O3d0         2O3d+1        2O3d+2        2O4d-2        2O4d-1        2O4d0         2O4d+1        2O4d+2        2O1f-3    
   13    2O1f-2        2O1f-1        2O1f0         2O1f+1        2O1f+2        2O1f+3        2O2f-3        2O2f-2        2O2f-1        2O2f0     
   14    2O2f+1        2O2f+2        2O2f+3        2O1g-4        2O1g-3        2O1g-2        2O1g-1        2O1g0         2O1g+1        2O1g+2    
   15    2O1g+3        2O1g+4    
 
 Maximum number of basis functions per shell:   25
 Total number of basis functions:    152
 
 
 Fitting basis set for the correlation calculation:
 
   1  C  aug-cc-pvtz-ri [ 9s 7p 6d 4f 2g | 9s 7p 6d 4f 2g ]
   2  O  aug-cc-pvtz-ri [ 9s 7p 6d 4f 2g | 9s 7p 6d 4f 2g ]
 
 Basis functions:
            1             2             3             4             5             6             7             8             9            10
    0    1C1s          1C2s          1C3s          1C4s          1C5s          1C6s          1C7s          1C8s          1C9s          1C1pz     
    1    1C1py         1C1px         1C2pz         1C2py         1C2px         1C3pz         1C3py         1C3px         1C4pz         1C4py     
    2    1C4px         1C5pz         1C5py         1C5px         1C6pz         1C6py         1C6px         1C7pz         1C7py         1C7px     
    3    1C1d-2        1C1d-1        1C1d0         1C1d+1        1C1d+2        1C2d-2        1C2d-1        1C2d0         1C2d+1        1C2d+2    
    4    1C3d-2        1C3d-1        1C3d0         1C3d+1        1C3d+2        1C4d-2        1C4d-1        1C4d0         1C4d+1        1C4d+2    
    5    1C5d-2        1C5d-1        1C5d0         1C5d+1        1C5d+2        1C6d-2        1C6d-1        1C6d0         1C6d+1        1C6d+2    
    6    1C1f-3        1C1f-2        1C1f-1        1C1f0         1C1f+1        1C1f+2        1C1f+3        1C2f-3        1C2f-2        1C2f-1    
    7    1C2f0         1C2f+1        1C2f+2        1C2f+3        1C3f-3        1C3f-2        1C3f-1        1C3f0         1C3f+1        1C3f+2    
    8    1C3f+3        1C4f-3        1C4f-2        1C4f-1        1C4f0         1C4f+1        1C4f+2        1C4f+3        1C1g-4        1C1g-3    
    9    1C1g-2        1C1g-1        1C1g0         1C1g+1        1C1g+2        1C1g+3        1C1g+4        1C2g-4        1C2g-3        1C2g-2    
   10    1C2g-1        1C2g0         1C2g+1        1C2g+2        1C2g+3        1C2g+4        2O1s          2O2s          2O3s          2O4s      
   11    2O5s          2O6s          2O7s          2O8s          2O9s          2O1pz         2O1py         2O1px         2O2pz         2O2py     
   12    2O2px         2O3pz         2O3py         2O3px         2O4pz         2O4py         2O4px         2O5pz         2O5py         2O5px     
   13    2O6pz         2O6py         2O6px         2O7pz         2O7py         2O7px         2O1d-2        2O1d-1        2O1d0         2O1d+1    
   14    2O1d+2        2O2d-2        2O2d-1        2O2d0         2O2d+1        2O2d+2        2O3d-2        2O3d-1        2O3d0         2O3d+1    
   15    2O3d+2        2O4d-2        2O4d-1        2O4d0         2O4d+1        2O4d+2        2O5d-2        2O5d-1        2O5d0         2O5d+1    
   16    2O5d+2        2O6d-2        2O6d-1        2O6d0         2O6d+1        2O6d+2        2O1f-3        2O1f-2        2O1f-1        2O1f0     
   17    2O1f+1        2O1f+2        2O1f+3        2O2f-3        2O2f-2        2O2f-1        2O2f0         2O2f+1        2O2f+2        2O2f+3    
   18    2O3f-3        2O3f-2        2O3f-1        2O3f0         2O3f+1        2O3f+2        2O3f+3        2O4f-3        2O4f-2        2O4f-1    
   19    2O4f0         2O4f+1        2O4f+2        2O4f+3        2O1g-4        2O1g-3        2O1g-2        2O1g-1        2O1g0         2O1g+1    
   20    2O1g+2        2O1g+3        2O1g+4        2O2g-4        2O2g-3        2O2g-2        2O2g-1        2O2g0         2O2g+1        2O2g+2    
   21    2O2g+3        2O2g+4    
 
 Maximum number of basis functions per shell:   30
 Total number of basis functions:    212
 
 
 Old basis set for SCF restart
 
   1  C  def2-svp [ 7s 4p 1d | 3s 2p 1d ]
   2  O  def2-svp [ 7s 4p 1d | 3s 2p 1d ]
 
 Basis functions:
            1             2             3             4             5             6             7             8             9            10
    0    1C1s          1C2s          1C3s          1C1pz         1C1py         1C1px         1C2pz         1C2py         1C2px         1C1d-2    
    1    1C1d-1        1C1d0         1C1d+1        1C1d+2        2O1s          2O2s          2O3s          2O1pz         2O1py         2O1px     
    2    2O2pz         2O2py         2O2px         2O1d-2        2O1d-1        2O1d0         2O1d+1        2O1d+2    
 
 Maximum number of basis functions per shell:   30
 Total number of basis functions:     28
 
 
 Calculation of prescreening integrals...
 CPU time [min]:     0.046                   Wall time [min]:     0.005
 
 Calculation of two-center Coulomb integrals...
   2% done.
  17% done.
  30% done.
  41% done.
  61% done.
  84% done.
 100% done.
 CPU time [min]:     0.055                   Wall time [min]:     0.006
 
 Cholesky decomposition of the inverse of the two-center matrix...
 CPU time [min]:     0.113                   Wall time [min]:     0.007
 
 Calculation of three-center Coulomb integrals...
   4% done.
  25% done.
  47% done.
  72% done.
 100% done.
 CPU time [min]:     0.305                   Wall time [min]:     0.013

 ************************ 2023-04-26 04:25:20 *************************
 Executing drpa...

 Three-index integral transformation and DF-MP2 calculation
 
 Allocation of 200.0 Gbytes of memory...
 Minimal memory requirement for (ai|P) integrals:        1.3 MB

 Calculating (ai|P) integrals...
 Number of integral batches:    1
 Occupied indices per batch:    5
 
 Transforming integrals of batch 1...
 CPU time [min]:     0.025                   Wall time [min]:     0.004
 
 
 
 Reference energy [au]:                      -112.778349433327
 DF-MP2 singlet pair energy [au]:              -0.271722614722
 DF-MP2 triplet pair energy [au]:              -0.092093296809
 DF-SCS-MP2 correlation energy [au]:           -0.356764903270
 DF-SCS-MP2 energy [au]:                     -113.135114336597
 DF-SOS-MP2 correlation energy [au]:           -0.353239399139
 DF-SOS-MP2 energy [au]:                     -113.131588832466
 DF-MP2 correlation energy [au]:               -0.363815911531
 DF-MP2 energy [au]:                         -113.142165344858
 
 ************************ 2023-04-26 04:25:20 *************************
                      Normal termination of mrcc.
 **********************************************************************
