 **********************************************************************
                          MRCC program system
 **********************************************************************
 
                              Written by
     Mihaly Kallay, Peter R. Nagy, David Mester, Laszlo Gyevi-Nagy,
        Jozsef Csoka, P. Bernat Szabo, Zoltan Rolik, Gyula Samu,
     Jozsef Csontos, Bence Hegely, Adam Ganyecz, Istvan Ladjanszki,
       Lorant Szegedy, Bence Ladoczki, Klara Petrov, Mate Farkas,
                    Pal D. Mezei, and Reka A. Horvath
 
        Department of Physical Chemistry and Materials Science
            Budapest University of Technology and Economics
                  Budapest P.O.Box 91, H-1521 Hungary
 
                              www.mrcc.hu
 
                      Release date: March 18, 2022

 ************************ 2023-04-26 04:50:53 *************************
 Executing minp...

 Reading input from MINP...
 
 Input file:
 
calc=DF-MP2
scftype=rhf
verbosity=3
mem=200GB
symm=off
unit=angs
scfiguess=small
scfmaxit=1000
scfalg=locfit1



charge=-64
core=236

basis=special
aug-cc-pVDZ
aug-cc-pVDZ
cc-pVDZ
aug-cc-pVDZ
aug-cc-pVDZ
aug-cc-pVDZ
aug-cc-pVDZ
aug-cc-pVDZ
cc-pVDZ
cc-pVDZ
cc-pVDZ
cc-pVDZ
cc-pVDZ
cc-pVDZ
cc-pVDZ
cc-pVDZ
aug-cc-pVDZ
aug-cc-pVDZ
aug-cc-pVDZ
aug-cc-pVDZ
cc-pVDZ
cc-pVDZ
cc-pVDZ
cc-pVDZ
cc-pVDZ
aug-cc-pVDZ
aug-cc-pVDZ
aug-cc-pVDZ
aug-cc-pVDZ
aug-cc-pVDZ
aug-cc-pVDZ
aug-cc-pVDZ
aug-cc-pVDZ
aug-cc-pVDZ
aug-cc-pVDZ
aug-cc-pVDZ
aug-cc-pVDZ
aug-cc-pVDZ
aug-cc-pVDZ
aug-cc-pVDZ
aug-cc-pVDZ
cc-pVDZ
cc-pVDZ
cc-pVDZ
cc-pVDZ
cc-pVDZ
cc-pVDZ
cc-pVDZ
cc-pVDZ
cc-pVDZ
cc-pVDZ
cc-pVDZ
cc-pVDZ
aug-cc-pVDZ
aug-cc-pVDZ
aug-cc-pVDZ
aug-cc-pVDZ
aug-cc-pVDZ
aug-cc-pVDZ
aug-cc-pVDZ
aug-cc-pVDZ
aug-cc-pVDZ
aug-cc-pVDZ
aug-cc-pVDZ
aug-cc-pVDZ
aug-cc-pVDZ
aug-cc-pVDZ
aug-cc-pVDZ
aug-cc-pVDZ
aug-cc-pVDZ
cc-pVDZ
cc-pVDZ
cc-pVDZ
cc-pVDZ
cc-pVDZ
cc-pVDZ
cc-pVDZ
cc-pVDZ
aug-cc-pVDZ
aug-cc-pVDZ
aug-cc-pVDZ
aug-cc-pVDZ
aug-cc-pVDZ
aug-cc-pVDZ
aug-cc-pVDZ
aug-cc-pVDZ
aug-cc-pVDZ
aug-cc-pVDZ
aug-cc-pVDZ
aug-cc-pVDZ
aug-cc-pVDZ
aug-cc-pVDZ
aug-cc-pVDZ
aug-cc-pVDZ
aug-cc-pVDZ
aug-cc-pVDZ
aug-cc-pVDZ
aug-cc-pVDZ
aug-cc-pVDZ
aug-cc-pVDZ
aug-cc-pVDZ
aug-cc-pVDZ
nothing
nothing
nothing
nothing
nothing
nothing
nothing
nothing
nothing
nothing
nothing
nothing
nothing
nothing
nothing
nothing
nothing
nothing
nothing
nothing
nothing
nothing
nothing
nothing
nothing
nothing
nothing
nothing
nothing
nothing
nothing
nothing
nothing
nothing
nothing
nothing
nothing
nothing
nothing
nothing
nothing
nothing
nothing
nothing
nothing
nothing
nothing
nothing
nothing
nothing
nothing
nothing
nothing
nothing
nothing
nothing
nothing
nothing
nothing
nothing
nothing
nothing
nothing
nothing
nothing
nothing
nothing
nothing
nothing
nothing
nothing
nothing
nothing
nothing
nothing
nothing
nothing
nothing
nothing
nothing
nothing
nothing
nothing
nothing
nothing
nothing
nothing
nothing
nothing
nothing
nothing
nothing
nothing
nothing
nothing
nothing
nothing
nothing
nothing
nothing
nothing
nothing
nothing
nothing
nothing
nothing
nothing
nothing
nothing
nothing
nothing
nothing
nothing
nothing
nothing
nothing
nothing
nothing
nothing
nothing
nothing
nothing
nothing
nothing

basis_sm=special
def2-SVP
def2-SVP
def2-SVP
def2-SVP
def2-SVP
def2-SVP
def2-SVP
def2-SVP
def2-SVP
def2-SVP
def2-SVP
def2-SVP
def2-SVP
def2-SVP
def2-SVP
def2-SVP
def2-SVP
def2-SVP
def2-SVP
def2-SVP
def2-SVP
def2-SVP
def2-SVP
def2-SVP
def2-SVP
def2-SVP
def2-SVP
def2-SVP
def2-SVP
def2-SVP
def2-SVP
def2-SVP
def2-SVP
def2-SVP
def2-SVP
def2-SVP
def2-SVP
def2-SVP
def2-SVP
def2-SVP
def2-SVP
def2-SVP
def2-SVP
def2-SVP
def2-SVP
def2-SVP
def2-SVP
def2-SVP
def2-SVP
def2-SVP
def2-SVP
def2-SVP
def2-SVP
def2-SVP
def2-SVP
def2-SVP
def2-SVP
def2-SVP
def2-SVP
def2-SVP
def2-SVP
def2-SVP
def2-SVP
def2-SVP
def2-SVP
def2-SVP
def2-SVP
def2-SVP
def2-SVP
def2-SVP
def2-SVP
def2-SVP
def2-SVP
def2-SVP
def2-SVP
def2-SVP
def2-SVP
def2-SVP
def2-SVP
def2-SVP
def2-SVP
def2-SVP
def2-SVP
def2-SVP
def2-SVP
def2-SVP
def2-SVP
def2-SVP
def2-SVP
def2-SVP
def2-SVP
def2-SVP
def2-SVP
def2-SVP
def2-SVP
def2-SVP
def2-SVP
def2-SVP
def2-SVP
def2-SVP
def2-SVP
def2-SVP
nothing
nothing
nothing
nothing
nothing
nothing
nothing
nothing
nothing
nothing
nothing
nothing
nothing
nothing
nothing
nothing
nothing
nothing
nothing
nothing
nothing
nothing
nothing
nothing
nothing
nothing
nothing
nothing
nothing
nothing
nothing
nothing
nothing
nothing
nothing
nothing
nothing
nothing
nothing
nothing
nothing
nothing
nothing
nothing
nothing
nothing
nothing
nothing
nothing
nothing
nothing
nothing
nothing
nothing
nothing
nothing
nothing
nothing
nothing
nothing
nothing
nothing
nothing
nothing
nothing
nothing
nothing
nothing
nothing
nothing
nothing
nothing
nothing
nothing
nothing
nothing
nothing
nothing
nothing
nothing
nothing
nothing
nothing
nothing
nothing
nothing
nothing
nothing
nothing
nothing
nothing
nothing
nothing
nothing
nothing
nothing
nothing
nothing
nothing
nothing
nothing
nothing
nothing
nothing
nothing
nothing
nothing
nothing
nothing
nothing
nothing
nothing
nothing
nothing
nothing
nothing
nothing
nothing
nothing
nothing
nothing
nothing
nothing
nothing

dfbasis_scf=special
def2-QZVPP-RI-JK
def2-QZVPP-RI-JK
def2-QZVPP-RI-JK
def2-QZVPP-RI-JK
def2-QZVPP-RI-JK
def2-QZVPP-RI-JK
def2-QZVPP-RI-JK
def2-QZVPP-RI-JK
def2-QZVPP-RI-JK
def2-QZVPP-RI-JK
def2-QZVPP-RI-JK
def2-QZVPP-RI-JK
def2-QZVPP-RI-JK
def2-QZVPP-RI-JK
def2-QZVPP-RI-JK
def2-QZVPP-RI-JK
def2-QZVPP-RI-JK
def2-QZVPP-RI-JK
def2-QZVPP-RI-JK
def2-QZVPP-RI-JK
def2-QZVPP-RI-JK
def2-QZVPP-RI-JK
def2-QZVPP-RI-JK
def2-QZVPP-RI-JK
def2-QZVPP-RI-JK
def2-QZVPP-RI-JK
def2-QZVPP-RI-JK
def2-QZVPP-RI-JK
def2-QZVPP-RI-JK
def2-QZVPP-RI-JK
def2-QZVPP-RI-JK
def2-QZVPP-RI-JK
def2-QZVPP-RI-JK
def2-QZVPP-RI-JK
def2-QZVPP-RI-JK
def2-QZVPP-RI-JK
def2-QZVPP-RI-JK
def2-QZVPP-RI-JK
def2-QZVPP-RI-JK
def2-QZVPP-RI-JK
def2-QZVPP-RI-JK
def2-QZVPP-RI-JK
def2-QZVPP-RI-JK
def2-QZVPP-RI-JK
def2-QZVPP-RI-JK
def2-QZVPP-RI-JK
def2-QZVPP-RI-JK
def2-QZVPP-RI-JK
def2-QZVPP-RI-JK
def2-QZVPP-RI-JK
def2-QZVPP-RI-JK
def2-QZVPP-RI-JK
def2-QZVPP-RI-JK
def2-QZVPP-RI-JK
def2-QZVPP-RI-JK
def2-QZVPP-RI-JK
def2-QZVPP-RI-JK
def2-QZVPP-RI-JK
def2-QZVPP-RI-JK
def2-QZVPP-RI-JK
def2-QZVPP-RI-JK
def2-QZVPP-RI-JK
def2-QZVPP-RI-JK
def2-QZVPP-RI-JK
def2-QZVPP-RI-JK
def2-QZVPP-RI-JK
def2-QZVPP-RI-JK
def2-QZVPP-RI-JK
def2-QZVPP-RI-JK
def2-QZVPP-RI-JK
def2-QZVPP-RI-JK
def2-QZVPP-RI-JK
def2-QZVPP-RI-JK
def2-QZVPP-RI-JK
def2-QZVPP-RI-JK
def2-QZVPP-RI-JK
def2-QZVPP-RI-JK
def2-QZVPP-RI-JK
def2-QZVPP-RI-JK
def2-QZVPP-RI-JK
def2-QZVPP-RI-JK
def2-QZVPP-RI-JK
def2-QZVPP-RI-JK
def2-QZVPP-RI-JK
def2-QZVPP-RI-JK
def2-QZVPP-RI-JK
def2-QZVPP-RI-JK
def2-QZVPP-RI-JK
def2-QZVPP-RI-JK
def2-QZVPP-RI-JK
def2-QZVPP-RI-JK
def2-QZVPP-RI-JK
def2-QZVPP-RI-JK
def2-QZVPP-RI-JK
def2-QZVPP-RI-JK
def2-QZVPP-RI-JK
def2-QZVPP-RI-JK
def2-QZVPP-RI-JK
def2-QZVPP-RI-JK
def2-QZVPP-RI-JK
def2-QZVPP-RI-JK
def2-QZVPP-RI-JK
nothing
nothing
nothing
nothing
nothing
nothing
nothing
nothing
nothing
nothing
nothing
nothing
nothing
nothing
nothing
nothing
nothing
nothing
nothing
nothing
nothing
nothing
nothing
nothing
nothing
nothing
nothing
nothing
nothing
nothing
nothing
nothing
nothing
nothing
nothing
nothing
nothing
nothing
nothing
nothing
nothing
nothing
nothing
nothing
nothing
nothing
nothing
nothing
nothing
nothing
nothing
nothing
nothing
nothing
nothing
nothing
nothing
nothing
nothing
nothing
nothing
nothing
nothing
nothing
nothing
nothing
nothing
nothing
nothing
nothing
nothing
nothing
nothing
nothing
nothing
nothing
nothing
nothing
nothing
nothing
nothing
nothing
nothing
nothing
nothing
nothing
nothing
nothing
nothing
nothing
nothing
nothing
nothing
nothing
nothing
nothing
nothing
nothing
nothing
nothing
nothing
nothing
nothing
nothing
nothing
nothing
nothing
nothing
nothing
nothing
nothing
nothing
nothing
nothing
nothing
nothing
nothing
nothing
nothing
nothing
nothing
nothing
nothing
nothing

dfbasis_cor=special
aug-cc-pVDZ-RI
aug-cc-pVDZ-RI
cc-pVDZ-RI
aug-cc-pVDZ-RI
aug-cc-pVDZ-RI
aug-cc-pVDZ-RI
aug-cc-pVDZ-RI
aug-cc-pVDZ-RI
cc-pVDZ-RI
cc-pVDZ-RI
cc-pVDZ-RI
cc-pVDZ-RI
cc-pVDZ-RI
cc-pVDZ-RI
cc-pVDZ-RI
cc-pVDZ-RI
aug-cc-pVDZ-RI
aug-cc-pVDZ-RI
aug-cc-pVDZ-RI
aug-cc-pVDZ-RI
cc-pVDZ-RI
cc-pVDZ-RI
cc-pVDZ-RI
cc-pVDZ-RI
cc-pVDZ-RI
aug-cc-pVDZ-RI
aug-cc-pVDZ-RI
aug-cc-pVDZ-RI
aug-cc-pVDZ-RI
aug-cc-pVDZ-RI
aug-cc-pVDZ-RI
aug-cc-pVDZ-RI
aug-cc-pVDZ-RI
aug-cc-pVDZ-RI
aug-cc-pVDZ-RI
aug-cc-pVDZ-RI
aug-cc-pVDZ-RI
aug-cc-pVDZ-RI
aug-cc-pVDZ-RI
aug-cc-pVDZ-RI
aug-cc-pVDZ-RI
cc-pVDZ-RI
cc-pVDZ-RI
cc-pVDZ-RI
cc-pVDZ-RI
cc-pVDZ-RI
cc-pVDZ-RI
cc-pVDZ-RI
cc-pVDZ-RI
cc-pVDZ-RI
cc-pVDZ-RI
cc-pVDZ-RI
cc-pVDZ-RI
aug-cc-pVDZ-RI
aug-cc-pVDZ-RI
aug-cc-pVDZ-RI
aug-cc-pVDZ-RI
aug-cc-pVDZ-RI
aug-cc-pVDZ-RI
aug-cc-pVDZ-RI
aug-cc-pVDZ-RI
aug-cc-pVDZ-RI
aug-cc-pVDZ-RI
aug-cc-pVDZ-RI
aug-cc-pVDZ-RI
aug-cc-pVDZ-RI
aug-cc-pVDZ-RI
aug-cc-pVDZ-RI
aug-cc-pVDZ-RI
aug-cc-pVDZ-RI
cc-pVDZ-RI
cc-pVDZ-RI
cc-pVDZ-RI
cc-pVDZ-RI
cc-pVDZ-RI
cc-pVDZ-RI
cc-pVDZ-RI
cc-pVDZ-RI
aug-cc-pVDZ-RI
aug-cc-pVDZ-RI
aug-cc-pVDZ-RI
aug-cc-pVDZ-RI
aug-cc-pVDZ-RI
aug-cc-pVDZ-RI
aug-cc-pVDZ-RI
aug-cc-pVDZ-RI
aug-cc-pVDZ-RI
aug-cc-pVDZ-RI
aug-cc-pVDZ-RI
aug-cc-pVDZ-RI
aug-cc-pVDZ-RI
aug-cc-pVDZ-RI
aug-cc-pVDZ-RI
aug-cc-pVDZ-RI
aug-cc-pVDZ-RI
aug-cc-pVDZ-RI
aug-cc-pVDZ-RI
aug-cc-pVDZ-RI
aug-cc-pVDZ-RI
aug-cc-pVDZ-RI
aug-cc-pVDZ-RI
aug-cc-pVDZ-RI
nothing
nothing
nothing
nothing
nothing
nothing
nothing
nothing
nothing
nothing
nothing
nothing
nothing
nothing
nothing
nothing
nothing
nothing
nothing
nothing
nothing
nothing
nothing
nothing
nothing
nothing
nothing
nothing
nothing
nothing
nothing
nothing
nothing
nothing
nothing
nothing
nothing
nothing
nothing
nothing
nothing
nothing
nothing
nothing
nothing
nothing
nothing
nothing
nothing
nothing
nothing
nothing
nothing
nothing
nothing
nothing
nothing
nothing
nothing
nothing
nothing
nothing
nothing
nothing
nothing
nothing
nothing
nothing
nothing
nothing
nothing
nothing
nothing
nothing
nothing
nothing
nothing
nothing
nothing
nothing
nothing
nothing
nothing
nothing
nothing
nothing
nothing
nothing
nothing
nothing
nothing
nothing
nothing
nothing
nothing
nothing
nothing
nothing
nothing
nothing
nothing
nothing
nothing
nothing
nothing
nothing
nothing
nothing
nothing
nothing
nothing
nothing
nothing
nothing
nothing
nothing
nothing
nothing
nothing
nothing
nothing
nothing
nothing
nothing

ecp=special
none
none
none
none
none
none
none
none
none
none
none
none
none
none
none
none
none
none
none
none
none
none
none
none
none
none
none
none
none
none
none
none
none
none
none
none
none
none
none
none
none
none
none
none
none
none
none
none
none
none
none
none
none
none
none
none
none
none
none
none
none
none
none
none
none
none
none
none
none
none
none
none
none
none
none
none
none
none
none
none
none
none
none
none
none
none
none
none
none
none
none
none
none
none
none
none
none
none
none
none
none
none
ECP-12
ECP-12
ECP-12
ECP-12
ECP-12
ECP-12
ECP-12
ECP-12
ECP-12
ECP-12
ECP-12
ECP-12
ECP-12
ECP-12
ECP-12
ECP-12
ECP-12
ECP-12
ECP-12
ECP-12
ECP-12
ECP-12
ECP-12
ECP-12
ECP-12
ECP-12
ECP-12
ECP-12
ECP-12
ECP-12
ECP-12
ECP-12
ECP-12
ECP-12
ECP-12
ECP-12
ECP-12
ECP-12
ECP-12
ECP-12
ECP-12
ECP-12
ECP-12
ECP-12
ECP-12
ECP-12
ECP-12
ECP-12
ECP-12
ECP-12
ECP-12
ECP-12
ECP-12
ECP-12
ECP-12
ECP-12
ECP-12
ECP-12
ECP-12
ECP-12
ECP-12
ECP-12
ECP-12
ECP-12
ECP-12
ECP-12
ECP-12
ECP-12
ECP-12
ECP-12
ECP-12
ECP-12
ECP-12
ECP-12
ECP-12
ECP-12
ECP-12
ECP-12
ECP-12
ECP-12
ECP-12
ECP-12
ECP-12
ECP-12
ECP-12
ECP-12
ECP-12
ECP-12
ECP-12
ECP-12
ECP-12
ECP-12
ECP-12
ECP-12
ECP-12
ECP-12
ECP-12
ECP-12
ECP-12
ECP-12
ECP-12
ECP-12
ECP-12
ECP-12
ECP-12
ECP-12
ECP-12
ECP-12
ECP-12
ECP-12
ECP-12
ECP-12
ECP-12
ECP-12
ECP-12
ECP-12
ECP-12
ECP-12
ECP-12
ECP-12
ECP-12
ECP-12
ECP-12
ECP-12

unit=angs
geom=xyz
226
C1 O1 Mg34 O66 ECP124
C     0.00000000000    0.00000000000    2.43329433571
O     0.00000000000    0.00000000000    3.58011415037
Mg    0.00000000000    0.00000000000   -0.00772802266
O    -2.12018425659    0.00000000000   -0.00205593177
O     0.00000000000    2.12018425659   -0.00205593177
O     2.12018425659    0.00000000000   -0.00205593177
O     0.00000000000   -2.12018425659   -0.00205593177
O     0.00000000000    0.00000000000   -2.14902768389
Mg   -2.11144262254    2.11144262254   -0.05140086690
Mg    2.11144262254    2.11144262254   -0.05140086690
Mg    2.11144262254   -2.11144262254   -0.05140086690
Mg   -2.11144262254   -2.11144262254   -0.05140086690
Mg   -2.10705287155    0.00000000000   -2.14928009216
Mg    0.00000000000    2.10705287155   -2.14928009216
Mg    2.10705287155    0.00000000000   -2.14928009216
Mg    0.00000000000   -2.10705287155   -2.14928009216
O    -2.11070451449    2.11070451449   -2.15696791928
O     2.11070451449    2.11070451449   -2.15696791928
O     2.11070451449   -2.11070451449   -2.15696791928
O    -2.11070451449   -2.11070451449   -2.15696791928
Mg   -4.22049352791    0.00000000000   -0.05042534122
Mg    0.00000000000    4.22049352791   -0.05042534122
Mg    4.22049352791    0.00000000000   -0.05042534122
Mg    0.00000000000   -4.22049352791   -0.05042534122
Mg    0.00000000000    0.00000000000   -4.27562330794
O    -4.22049352791    2.11209139723    0.00000000000
O    -2.11209139723    4.22049352791    0.00000000000
O     2.11209139723    4.22049352791    0.00000000000
O     4.22049352791    2.11209139723    0.00000000000
O     4.22049352791   -2.11209139723    0.00000000000
O     2.11209139723   -4.22049352791    0.00000000000
O    -2.11209139723   -4.22049352791    0.00000000000
O    -4.22049352791   -2.11209139723    0.00000000000
O    -4.22049352791    0.00000000000   -2.15902521756
O     0.00000000000    4.22049352791   -2.15902521756
O     4.22049352791    0.00000000000   -2.15902521756
O     0.00000000000   -4.22049352791   -2.15902521756
O    -2.11024676395    0.00000000000   -4.27562330794
O     0.00000000000    2.11024676395   -4.27562330794
O     2.11024676395    0.00000000000   -4.27562330794
O     0.00000000000   -2.11024676395   -4.27562330794
Mg   -4.22049352791    2.10973412517   -2.15218714568
Mg   -2.10973412517    4.22049352791   -2.15218714568
Mg    2.10973412517    4.22049352791   -2.15218714568
Mg    4.22049352791    2.10973412517   -2.15218714568
Mg    4.22049352791   -2.10973412517   -2.15218714568
Mg    2.10973412517   -4.22049352791   -2.15218714568
Mg   -2.10973412517   -4.22049352791   -2.15218714568
Mg   -4.22049352791   -2.10973412517   -2.15218714568
Mg   -4.22049352791    4.22049352791   -0.04765173215
Mg    4.22049352791    4.22049352791   -0.04765173215
Mg    4.22049352791   -4.22049352791   -0.04765173215
Mg   -4.22049352791   -4.22049352791   -0.04765173215
O    -6.32080279923    0.00000000000   -0.00205593177
O     0.00000000000    6.32080279923   -0.00205593177
O     6.32080279923    0.00000000000   -0.00205593177
O     0.00000000000   -6.32080279923   -0.00205593177
O    -4.22049352791    4.22049352791   -2.15801787533
O     4.22049352791    4.22049352791   -2.15801787533
O     4.22049352791   -4.22049352791   -2.15801787533
O    -4.22049352791   -4.22049352791   -2.15801787533
O    -4.22049352791    2.11024676395   -4.27562330794
O    -2.11024676395    4.22049352791   -4.27562330794
O     2.11024676395    4.22049352791   -4.27562330794
O     4.22049352791    2.11024676395   -4.27562330794
O     4.22049352791   -2.11024676395   -4.27562330794
O     2.11024676395   -4.22049352791   -4.27562330794
O    -2.11024676395   -4.22049352791   -4.27562330794
O    -4.22049352791   -2.11024676395   -4.27562330794
O     0.00000000000    0.00000000000   -6.38587007189
Mg   -6.32954443328    2.11144262254   -0.05140086690
Mg   -2.11144262254    6.32954443328   -0.05140086690
Mg    2.11144262254    6.32954443328   -0.05140086690
Mg    6.32954443328    2.11144262254   -0.05140086690
Mg    6.32954443328   -2.11144262254   -0.05140086690
Mg    2.11144262254   -6.32954443328   -0.05140086690
Mg   -2.11144262254   -6.32954443328   -0.05140086690
Mg   -6.32954443328   -2.11144262254   -0.05140086690
O    -6.33028254133    2.11070451449   -2.15696791928
O    -2.11070451449    6.33028254133   -2.15696791928
O     2.11070451449    6.33028254133   -2.15696791928
O     6.33028254133    2.11070451449   -2.15696791928
O     6.33028254133   -2.11070451449   -2.15696791928
O     2.11070451449   -6.33028254133   -2.15696791928
O    -2.11070451449   -6.33028254133   -2.15696791928
O    -6.33028254133   -2.11070451449   -2.15696791928
O    -6.32889565859    4.22049352791    0.00000000000
O    -4.22049352791    6.32889565859    0.00000000000
O     4.22049352791    6.32889565859    0.00000000000
O     6.32889565859    4.22049352791    0.00000000000
O     6.32889565859   -4.22049352791    0.00000000000
O     4.22049352791   -6.32889565859    0.00000000000
O    -4.22049352791   -6.32889565859    0.00000000000
O    -6.32889565859   -4.22049352791    0.00000000000
O    -8.44098705582    2.12018425659   -0.00205593177
O    -2.12018425659    8.44098705582   -0.00205593177
O     2.12018425659    8.44098705582   -0.00205593177
O     8.44098705582    2.12018425659   -0.00205593177
O     8.44098705582   -2.12018425659   -0.00205593177
O     2.12018425659   -8.44098705582   -0.00205593177
O    -2.12018425659   -8.44098705582   -0.00205593177
O    -8.44098705582   -2.12018425659   -0.00205593177
Mg   -2.11024676395    2.11024676395   -4.27562330794
Mg    2.11024676395    2.11024676395   -4.27562330794
Mg    2.11024676395   -2.11024676395   -4.27562330794
Mg   -2.11024676395   -2.11024676395   -4.27562330794
Mg   -4.22049352791    0.00000000000   -4.27562330794
Mg    0.00000000000    4.22049352791   -4.27562330794
Mg    4.22049352791    0.00000000000   -4.27562330794
Mg    0.00000000000   -4.22049352791   -4.27562330794
Mg   -6.33393418427    0.00000000000   -2.14928009216
Mg    0.00000000000    6.33393418427   -2.14928009216
Mg    6.33393418427    0.00000000000   -2.14928009216
Mg    0.00000000000   -6.33393418427   -2.14928009216
Mg   -2.11024676395    0.00000000000   -6.38587007189
Mg    0.00000000000    2.11024676395   -6.38587007189
Mg    2.11024676395    0.00000000000   -6.38587007189
Mg    0.00000000000   -2.11024676395   -6.38587007189
Mg   -4.22049352791    4.22049352791   -4.27562330794
Mg    4.22049352791    4.22049352791   -4.27562330794
Mg    4.22049352791   -4.22049352791   -4.27562330794
Mg   -4.22049352791   -4.22049352791   -4.27562330794
Mg   -6.33125293065    4.22049352791   -2.15218714568
Mg   -4.22049352791    6.33125293065   -2.15218714568
Mg    4.22049352791    6.33125293065   -2.15218714568
Mg    6.33125293065    4.22049352791   -2.15218714568
Mg    6.33125293065   -4.22049352791   -2.15218714568
Mg    4.22049352791   -6.33125293065   -2.15218714568
Mg   -4.22049352791   -6.33125293065   -2.15218714568
Mg   -6.33125293065   -4.22049352791   -2.15218714568
Mg   -6.33074029186    2.11024676395   -4.27562330794
Mg   -2.11024676395    6.33074029186   -4.27562330794
Mg    2.11024676395    6.33074029186   -4.27562330794
Mg    6.33074029186    2.11024676395   -4.27562330794
Mg    6.33074029186   -2.11024676395   -4.27562330794
Mg    2.11024676395   -6.33074029186   -4.27562330794
Mg   -2.11024676395   -6.33074029186   -4.27562330794
Mg   -6.33074029186   -2.11024676395   -4.27562330794
Mg   -4.22049352791    2.11024676395   -6.38587007189
Mg   -2.11024676395    4.22049352791   -6.38587007189
Mg    2.11024676395    4.22049352791   -6.38587007189
Mg    4.22049352791    2.11024676395   -6.38587007189
Mg    4.22049352791   -2.11024676395   -6.38587007189
Mg    2.11024676395   -4.22049352791   -6.38587007189
Mg   -2.11024676395   -4.22049352791   -6.38587007189
Mg   -4.22049352791   -2.11024676395   -6.38587007189
Mg   -8.44098705582    0.00000000000   -0.00772802266
Mg    0.00000000000    8.44098705582   -0.00772802266
Mg    8.44098705582    0.00000000000   -0.00772802266
Mg    0.00000000000   -8.44098705582   -0.00772802266
Mg   -6.32954443328    6.32954443328   -0.05140086690
Mg    6.32954443328    6.32954443328   -0.05140086690
Mg    6.32954443328   -6.32954443328   -0.05140086690
Mg   -6.32954443328   -6.32954443328   -0.05140086690
Mg   -8.44098705582    2.10705287155   -2.14928009216
Mg   -2.10705287155    8.44098705582   -2.14928009216
Mg    2.10705287155    8.44098705582   -2.14928009216
Mg    8.44098705582    2.10705287155   -2.14928009216
Mg    8.44098705582   -2.10705287155   -2.14928009216
Mg    2.10705287155   -8.44098705582   -2.14928009216
Mg   -2.10705287155   -8.44098705582   -2.14928009216
Mg   -8.44098705582   -2.10705287155   -2.14928009216
Mg   -6.33074029186    0.00000000000   -6.38587007189
Mg    0.00000000000    6.33074029186   -6.38587007189
Mg    6.33074029186    0.00000000000   -6.38587007189
Mg    0.00000000000   -6.33074029186   -6.38587007189
Mg   -8.44098705582    4.22049352791   -0.05042534122
Mg   -4.22049352791    8.44098705582   -0.05042534122
Mg    4.22049352791    8.44098705582   -0.05042534122
Mg    8.44098705582    4.22049352791   -0.05042534122
Mg    8.44098705582   -4.22049352791   -0.05042534122
Mg    4.22049352791   -8.44098705582   -0.05042534122
Mg   -4.22049352791   -8.44098705582   -0.05042534122
Mg   -8.44098705582   -4.22049352791   -0.05042534122
Mg   -8.44098705582    0.00000000000   -4.27562330794
Mg    0.00000000000    8.44098705582   -4.27562330794
Mg    8.44098705582    0.00000000000   -4.27562330794
Mg    0.00000000000   -8.44098705582   -4.27562330794
Mg   -6.33074029186    6.33074029186   -4.27562330794
Mg    6.33074029186    6.33074029186   -4.27562330794
Mg    6.33074029186   -6.33074029186   -4.27562330794
Mg   -6.33074029186   -6.33074029186   -4.27562330794
Mg   -6.33074029186    4.22049352791   -6.38587007189
Mg   -4.22049352791    6.33074029186   -6.38587007189
Mg    4.22049352791    6.33074029186   -6.38587007189
Mg    6.33074029186    4.22049352791   -6.38587007189
Mg    6.33074029186   -4.22049352791   -6.38587007189
Mg    4.22049352791   -6.33074029186   -6.38587007189
Mg   -4.22049352791   -6.33074029186   -6.38587007189
Mg   -6.33074029186   -4.22049352791   -6.38587007189
Mg   -8.44098705582    4.22049352791   -4.27562330794
Mg   -4.22049352791    8.44098705582   -4.27562330794
Mg    4.22049352791    8.44098705582   -4.27562330794
Mg    8.44098705582    4.22049352791   -4.27562330794
Mg    8.44098705582   -4.22049352791   -4.27562330794
Mg    4.22049352791   -8.44098705582   -4.27562330794
Mg   -4.22049352791   -8.44098705582   -4.27562330794
Mg   -8.44098705582   -4.22049352791   -4.27562330794
Mg  -10.55242967836    2.11144262254   -0.05140086690
Mg   -2.11144262254   10.55242967836   -0.05140086690
Mg    2.11144262254   10.55242967836   -0.05140086690
Mg   10.55242967836    2.11144262254   -0.05140086690
Mg   10.55242967836   -2.11144262254   -0.05140086690
Mg    2.11144262254  -10.55242967836   -0.05140086690
Mg   -2.11144262254  -10.55242967836   -0.05140086690
Mg  -10.55242967836   -2.11144262254   -0.05140086690
Mg  -10.54803992736    0.00000000000   -2.14928009216
Mg    0.00000000000   10.54803992736   -2.14928009216
Mg   10.54803992736    0.00000000000   -2.14928009216
Mg    0.00000000000  -10.54803992736   -2.14928009216
Mg   -8.44098705582    6.33393418427   -2.14928009216
Mg   -6.33393418427    8.44098705582   -2.14928009216
Mg    6.33393418427    8.44098705582   -2.14928009216
Mg    8.44098705582    6.33393418427   -2.14928009216
Mg    8.44098705582   -6.33393418427   -2.14928009216
Mg    6.33393418427   -8.44098705582   -2.14928009216
Mg   -6.33393418427   -8.44098705582   -2.14928009216
Mg   -8.44098705582   -6.33393418427   -2.14928009216
Mg  -10.55072118099    4.22049352791   -2.15218714568
Mg   -4.22049352791   10.55072118099   -2.15218714568
Mg    4.22049352791   10.55072118099   -2.15218714568
Mg   10.55072118099    4.22049352791   -2.15218714568
Mg   10.55072118099   -4.22049352791   -2.15218714568
Mg    4.22049352791  -10.55072118099   -2.15218714568
Mg   -4.22049352791  -10.55072118099   -2.15218714568
Mg  -10.55072118099   -4.22049352791   -2.15218714568


ghost=serialno
1-2

qmmm=Amber
pointcharges
10091
     -2.11024676395    2.11024676395   -4.27562330794    2.00000000000
      2.11024676395    2.11024676395   -4.27562330794    2.00000000000
      2.11024676395   -2.11024676395   -4.27562330794    2.00000000000
     -2.11024676395   -2.11024676395   -4.27562330794    2.00000000000
     -4.22049352791    0.00000000000   -4.27562330794    2.00000000000
      0.00000000000    4.22049352791   -4.27562330794    2.00000000000
      4.22049352791    0.00000000000   -4.27562330794    2.00000000000
      0.00000000000   -4.22049352791   -4.27562330794    2.00000000000
     -6.33393418427    0.00000000000   -2.14928009216    2.00000000000
      0.00000000000    6.33393418427   -2.14928009216    2.00000000000
      6.33393418427    0.00000000000   -2.14928009216    2.00000000000
      0.00000000000   -6.33393418427   -2.14928009216    2.00000000000
     -2.11024676395    0.00000000000   -6.38587007189    2.00000000000
      0.00000000000    2.11024676395   -6.38587007189    2.00000000000
      2.11024676395    0.00000000000   -6.38587007189    2.00000000000
      0.00000000000   -2.11024676395   -6.38587007189    2.00000000000
     -2.11024676395    2.11024676395   -6.38587007189   -2.00000000000
      2.11024676395    2.11024676395   -6.38587007189   -2.00000000000
      2.11024676395   -2.11024676395   -6.38587007189   -2.00000000000
     -2.11024676395   -2.11024676395   -6.38587007189   -2.00000000000
     -4.22049352791    4.22049352791   -4.27562330794    2.00000000000
      4.22049352791    4.22049352791   -4.27562330794    2.00000000000
      4.22049352791   -4.22049352791   -4.27562330794    2.00000000000
     -4.22049352791   -4.22049352791   -4.27562330794    2.00000000000
     -6.33074029186    0.00000000000   -4.27562330794   -2.00000000000
      0.00000000000    6.33074029186   -4.27562330794   -2.00000000000
      6.33074029186    0.00000000000   -4.27562330794   -2.00000000000
      0.00000000000   -6.33074029186   -4.27562330794   -2.00000000000
     -4.22049352791    0.00000000000   -6.38587007189   -2.00000000000
      0.00000000000    4.22049352791   -6.38587007189   -2.00000000000
      4.22049352791    0.00000000000   -6.38587007189   -2.00000000000
      0.00000000000   -4.22049352791   -6.38587007189   -2.00000000000
     -6.33125293065    4.22049352791   -2.15218714568    2.00000000000
     -4.22049352791    6.33125293065   -2.15218714568    2.00000000000
      4.22049352791    6.33125293065   -2.15218714568    2.00000000000
      6.33125293065    4.22049352791   -2.15218714568    2.00000000000
      6.33125293065   -4.22049352791   -2.15218714568    2.00000000000
      4.22049352791   -6.33125293065   -2.15218714568    2.00000000000
     -4.22049352791   -6.33125293065   -2.15218714568    2.00000000000
     -6.33125293065   -4.22049352791   -2.15218714568    2.00000000000
     -6.33074029186    2.11024676395   -4.27562330794    2.00000000000
     -2.11024676395    6.33074029186   -4.27562330794    2.00000000000
      2.11024676395    6.33074029186   -4.27562330794    2.00000000000
      6.33074029186    2.11024676395   -4.27562330794    2.00000000000
      6.33074029186   -2.11024676395   -4.27562330794    2.00000000000
      2.11024676395   -6.33074029186   -4.27562330794    2.00000000000
     -2.11024676395   -6.33074029186   -4.27562330794    2.00000000000
     -6.33074029186   -2.11024676395   -4.27562330794    2.00000000000
     -4.22049352791    2.11024676395   -6.38587007189    2.00000000000
     -2.11024676395    4.22049352791   -6.38587007189    2.00000000000
      2.11024676395    4.22049352791   -6.38587007189    2.00000000000
      4.22049352791    2.11024676395   -6.38587007189    2.00000000000
      4.22049352791   -2.11024676395   -6.38587007189    2.00000000000
      2.11024676395   -4.22049352791   -6.38587007189    2.00000000000
     -2.11024676395   -4.22049352791   -6.38587007189    2.00000000000
     -4.22049352791   -2.11024676395   -6.38587007189    2.00000000000
     -8.44098705582    0.00000000000   -0.00772802266    2.00000000000
      0.00000000000    8.44098705582   -0.00772802266    2.00000000000
      8.44098705582    0.00000000000   -0.00772802266    2.00000000000
      0.00000000000   -8.44098705582   -0.00772802266    2.00000000000
     -8.44098705582    0.00000000000   -2.14902768389   -2.00000000000
      0.00000000000    8.44098705582   -2.14902768389   -2.00000000000
      8.44098705582    0.00000000000   -2.14902768389   -2.00000000000
      0.00000000000   -8.44098705582   -2.14902768389   -2.00000000000
     -6.33074029186    4.22049352791   -4.27562330794   -2.00000000000
     -4.22049352791    6.33074029186   -4.27562330794   -2.00000000000
      4.22049352791    6.33074029186   -4.27562330794   -2.00000000000
      6.33074029186    4.22049352791   -4.27562330794   -2.00000000000
      6.33074029186   -4.22049352791   -4.27562330794   -2.00000000000
      4.22049352791   -6.33074029186   -4.27562330794   -2.00000000000
     -4.22049352791   -6.33074029186   -4.27562330794   -2.00000000000
     -6.33074029186   -4.22049352791   -4.27562330794   -2.00000000000
     -4.22049352791    4.22049352791   -6.38587007189   -2.00000000000
      4.22049352791    4.22049352791   -6.38587007189   -2.00000000000
      4.22049352791   -4.22049352791   -6.38587007189   -2.00000000000
     -4.22049352791   -4.22049352791   -6.38587007189   -2.00000000000
     -6.32954443328    6.32954443328   -0.05140086690    2.00000000000
      6.32954443328    6.32954443328   -0.05140086690    2.00000000000
      6.32954443328   -6.32954443328   -0.05140086690    2.00000000000
     -6.32954443328   -6.32954443328   -0.05140086690    2.00000000000
     -8.44098705582    2.10705287155   -2.14928009216    2.00000000000
     -2.10705287155    8.44098705582   -2.14928009216    2.00000000000
      2.10705287155    8.44098705582   -2.14928009216    2.00000000000
      8.44098705582    2.10705287155   -2.14928009216    2.00000000000
      8.44098705582   -2.10705287155   -2.14928009216    2.00000000000
      2.10705287155   -8.44098705582   -2.14928009216    2.00000000000
     -2.10705287155   -8.44098705582   -2.14928009216    2.00000000000
     -8.44098705582   -2.10705287155   -2.14928009216    2.00000000000
     -6.33074029186    0.00000000000   -6.38587007189    2.00000000000
      0.00000000000    6.33074029186   -6.38587007189    2.00000000000
      6.33074029186    0.00000000000   -6.38587007189    2.00000000000
      0.00000000000   -6.33074029186   -6.38587007189    2.00000000000
     -6.33028254133    6.33028254133   -2.15696791928   -2.00000000000
      6.33028254133    6.33028254133   -2.15696791928   -2.00000000000
      6.33028254133   -6.33028254133   -2.15696791928   -2.00000000000
     -6.33028254133   -6.33028254133   -2.15696791928   -2.00000000000
     -6.33074029186    2.11024676395   -6.38587007189   -2.00000000000
     -2.11024676395    6.33074029186   -6.38587007189   -2.00000000000
      2.11024676395    6.33074029186   -6.38587007189   -2.00000000000
      6.33074029186    2.11024676395   -6.38587007189   -2.00000000000
      6.33074029186   -2.11024676395   -6.38587007189   -2.00000000000
      2.11024676395   -6.33074029186   -6.38587007189   -2.00000000000
     -2.11024676395   -6.33074029186   -6.38587007189   -2.00000000000
     -6.33074029186   -2.11024676395   -6.38587007189   -2.00000000000
     -8.44098705582    4.22049352791   -0.05042534122    2.00000000000
     -4.22049352791    8.44098705582   -0.05042534122    2.00000000000
      4.22049352791    8.44098705582   -0.05042534122    2.00000000000
      8.44098705582    4.22049352791   -0.05042534122    2.00000000000
      8.44098705582   -4.22049352791   -0.05042534122    2.00000000000
      4.22049352791   -8.44098705582   -0.05042534122    2.00000000000
     -4.22049352791   -8.44098705582   -0.05042534122    2.00000000000
     -8.44098705582   -4.22049352791   -0.05042534122    2.00000000000
     -8.44098705582    0.00000000000   -4.27562330794    2.00000000000
      0.00000000000    8.44098705582   -4.27562330794    2.00000000000
      8.44098705582    0.00000000000   -4.27562330794    2.00000000000
      0.00000000000   -8.44098705582   -4.27562330794    2.00000000000
     -8.44098705582    4.22049352791   -2.15902521756   -2.00000000000
     -4.22049352791    8.44098705582   -2.15902521756   -2.00000000000
      4.22049352791    8.44098705582   -2.15902521756   -2.00000000000
      8.44098705582    4.22049352791   -2.15902521756   -2.00000000000
      8.44098705582   -4.22049352791   -2.15902521756   -2.00000000000
      4.22049352791   -8.44098705582   -2.15902521756   -2.00000000000
     -4.22049352791   -8.44098705582   -2.15902521756   -2.00000000000
     -8.44098705582   -4.22049352791   -2.15902521756   -2.00000000000
     -8.44098705582    2.11024676395   -4.27562330794   -2.00000000000
     -2.11024676395    8.44098705582   -4.27562330794   -2.00000000000
      2.11024676395    8.44098705582   -4.27562330794   -2.00000000000
      8.44098705582    2.11024676395   -4.27562330794   -2.00000000000
      8.44098705582   -2.11024676395   -4.27562330794   -2.00000000000
      2.11024676395   -8.44098705582   -4.27562330794   -2.00000000000
     -2.11024676395   -8.44098705582   -4.27562330794   -2.00000000000
     -8.44098705582   -2.11024676395   -4.27562330794   -2.00000000000
     -6.33074029186    6.33074029186   -4.27562330794    2.00000000000
      6.33074029186    6.33074029186   -4.27562330794    2.00000000000
      6.33074029186   -6.33074029186   -4.27562330794    2.00000000000
     -6.33074029186   -6.33074029186   -4.27562330794    2.00000000000
     -6.33074029186    4.22049352791   -6.38587007189    2.00000000000
     -4.22049352791    6.33074029186   -6.38587007189    2.00000000000
      4.22049352791    6.33074029186   -6.38587007189    2.00000000000
      6.33074029186    4.22049352791   -6.38587007189    2.00000000000
      6.33074029186   -4.22049352791   -6.38587007189    2.00000000000
      4.22049352791   -6.33074029186   -6.38587007189    2.00000000000
     -4.22049352791   -6.33074029186   -6.38587007189    2.00000000000
     -6.33074029186   -4.22049352791   -6.38587007189    2.00000000000
     -8.44098705582    4.22049352791   -4.27562330794    2.00000000000
     -4.22049352791    8.44098705582   -4.27562330794    2.00000000000
      4.22049352791    8.44098705582   -4.27562330794    2.00000000000
      8.44098705582    4.22049352791   -4.27562330794    2.00000000000
      8.44098705582   -4.22049352791   -4.27562330794    2.00000000000
      4.22049352791   -8.44098705582   -4.27562330794    2.00000000000
     -4.22049352791   -8.44098705582   -4.27562330794    2.00000000000
     -8.44098705582   -4.22049352791   -4.27562330794    2.00000000000
     -8.44098705582    6.32080279923   -0.00205593177   -2.00000000000
     -6.32080279923    8.44098705582   -0.00205593177   -2.00000000000
      6.32080279923    8.44098705582   -0.00205593177   -2.00000000000
      8.44098705582    6.32080279923   -0.00205593177   -2.00000000000
      8.44098705582   -6.32080279923   -0.00205593177   -2.00000000000
      6.32080279923   -8.44098705582   -0.00205593177   -2.00000000000
     -6.32080279923   -8.44098705582   -0.00205593177   -2.00000000000
     -8.44098705582   -6.32080279923   -0.00205593177   -2.00000000000
    -10.56117131241    0.00000000000   -0.00205593177   -2.00000000000
      0.00000000000   10.56117131241   -0.00205593177   -2.00000000000
     10.56117131241    0.00000000000   -0.00205593177   -2.00000000000
      0.00000000000  -10.56117131241   -0.00205593177   -2.00000000000
    -10.55242967836    2.11144262254   -0.05140086690    2.00000000000
     -2.11144262254   10.55242967836   -0.05140086690    2.00000000000
      2.11144262254   10.55242967836   -0.05140086690    2.00000000000
     10.55242967836    2.11144262254   -0.05140086690    2.00000000000
     10.55242967836   -2.11144262254   -0.05140086690    2.00000000000
      2.11144262254  -10.55242967836   -0.05140086690    2.00000000000
     -2.11144262254  -10.55242967836   -0.05140086690    2.00000000000
    -10.55242967836   -2.11144262254   -0.05140086690    2.00000000000
    -10.54803992736    0.00000000000   -2.14928009216    2.00000000000
      0.00000000000   10.54803992736   -2.14928009216    2.00000000000
     10.54803992736    0.00000000000   -2.14928009216    2.00000000000
      0.00000000000  -10.54803992736   -2.14928009216    2.00000000000
     -8.44098705582    6.33393418427   -2.14928009216    2.00000000000
     -6.33393418427    8.44098705582   -2.14928009216    2.00000000000
      6.33393418427    8.44098705582   -2.14928009216    2.00000000000
      8.44098705582    6.33393418427   -2.14928009216    2.00000000000
      8.44098705582   -6.33393418427   -2.14928009216    2.00000000000
      6.33393418427   -8.44098705582   -2.14928009216    2.00000000000
     -6.33393418427   -8.44098705582   -2.14928009216    2.00000000000
     -8.44098705582   -6.33393418427   -2.14928009216    2.00000000000
    -10.55169157031    2.11070451449   -2.15696791928   -2.00000000000
     -2.11070451449   10.55169157031   -2.15696791928   -2.00000000000
      2.11070451449   10.55169157031   -2.15696791928   -2.00000000000
     10.55169157031    2.11070451449   -2.15696791928   -2.00000000000
     10.55169157031   -2.11070451449   -2.15696791928   -2.00000000000
      2.11070451449  -10.55169157031   -2.15696791928   -2.00000000000
     -2.11070451449  -10.55169157031   -2.15696791928   -2.00000000000
    -10.55169157031   -2.11070451449   -2.15696791928   -2.00000000000
    -10.55307845305    4.22049352791    0.00000000000   -2.00000000000
     -4.22049352791   10.55307845305    0.00000000000   -2.00000000000
      4.22049352791   10.55307845305    0.00000000000   -2.00000000000
     10.55307845305    4.22049352791    0.00000000000   -2.00000000000
     10.55307845305   -4.22049352791    0.00000000000   -2.00000000000
      4.22049352791  -10.55307845305    0.00000000000   -2.00000000000
     -4.22049352791  -10.55307845305    0.00000000000   -2.00000000000
    -10.55307845305   -4.22049352791    0.00000000000   -2.00000000000
    -10.55072118099    4.22049352791   -2.15218714568    2.00000000000
     -4.22049352791   10.55072118099   -2.15218714568    2.00000000000
      4.22049352791   10.55072118099   -2.15218714568    2.00000000000
     10.55072118099    4.22049352791   -2.15218714568    2.00000000000
     10.55072118099   -4.22049352791   -2.15218714568    2.00000000000
      4.22049352791  -10.55072118099   -2.15218714568    2.00000000000
     -4.22049352791  -10.55072118099   -2.15218714568    2.00000000000
    -10.55072118099   -4.22049352791   -2.15218714568    2.00000000000
     -8.44098705582    0.00000000000   -6.38587007189   -2.00000000000
      0.00000000000    8.44098705582   -6.38587007189   -2.00000000000
      8.44098705582    0.00000000000   -6.38587007189   -2.00000000000
      0.00000000000   -8.44098705582   -6.38587007189   -2.00000000000
     -8.44098705582    2.11024676395   -6.38587007189    2.00000000000
     -2.11024676395    8.44098705582   -6.38587007189    2.00000000000
      2.11024676395    8.44098705582   -6.38587007189    2.00000000000
      8.44098705582    2.11024676395   -6.38587007189    2.00000000000
      8.44098705582   -2.11024676395   -6.38587007189    2.00000000000
      2.11024676395   -8.44098705582   -6.38587007189    2.00000000000
     -2.11024676395   -8.44098705582   -6.38587007189    2.00000000000
     -8.44098705582   -2.11024676395   -6.38587007189    2.00000000000
     -6.33074029186    6.33074029186   -6.38587007189   -2.00000000000
      6.33074029186    6.33074029186   -6.38587007189   -2.00000000000
      6.33074029186   -6.33074029186   -6.38587007189   -2.00000000000
     -6.33074029186   -6.33074029186   -6.38587007189   -2.00000000000
    -10.55123381977    0.00000000000   -4.27562330794   -2.00000000000
     -8.44098705582    6.33074029186   -4.27562330794   -2.00000000000
     -6.33074029186    8.44098705582   -4.27562330794   -2.00000000000
      0.00000000000   10.55123381977   -4.27562330794   -2.00000000000
      6.33074029186    8.44098705582   -4.27562330794   -2.00000000000
      8.44098705582    6.33074029186   -4.27562330794   -2.00000000000
     10.55123381977    0.00000000000   -4.27562330794   -2.00000000000
      8.44098705582   -6.33074029186   -4.27562330794   -2.00000000000
      6.33074029186   -8.44098705582   -4.27562330794   -2.00000000000
      0.00000000000  -10.55123381977   -4.27562330794   -2.00000000000
     -6.33074029186   -8.44098705582   -4.27562330794   -2.00000000000
     -8.44098705582   -6.33074029186   -4.27562330794   -2.00000000000
     -8.44098705582    4.22049352791   -6.38587007189   -2.00000000000
     -4.22049352791    8.44098705582   -6.38587007189   -2.00000000000
      4.22049352791    8.44098705582   -6.38587007189   -2.00000000000
      8.44098705582    4.22049352791   -6.38587007189   -2.00000000000
      8.44098705582   -4.22049352791   -6.38587007189   -2.00000000000
      4.22049352791   -8.44098705582   -6.38587007189   -2.00000000000
     -4.22049352791   -8.44098705582   -6.38587007189   -2.00000000000
     -8.44098705582   -4.22049352791   -6.38587007189   -2.00000000000
    -10.55123381977    2.11024676395   -4.27562330794    2.00000000000
     -2.11024676395   10.55123381977   -4.27562330794    2.00000000000
      2.11024676395   10.55123381977   -4.27562330794    2.00000000000
     10.55123381977    2.11024676395   -4.27562330794    2.00000000000
     10.55123381977   -2.11024676395   -4.27562330794    2.00000000000
      2.11024676395  -10.55123381977   -4.27562330794    2.00000000000
     -2.11024676395  -10.55123381977   -4.27562330794    2.00000000000
    -10.55123381977   -2.11024676395   -4.27562330794    2.00000000000
     -8.44098705582    8.44098705582   -0.00772802266    2.00000000000
      8.44098705582    8.44098705582   -0.00772802266    2.00000000000
      8.44098705582   -8.44098705582   -0.00772802266    2.00000000000
     -8.44098705582   -8.44098705582   -0.00772802266    2.00000000000
     -8.44098705582    8.44098705582   -2.14902768389   -2.00000000000
      8.44098705582    8.44098705582   -2.14902768389   -2.00000000000
      8.44098705582   -8.44098705582   -2.14902768389   -2.00000000000
     -8.44098705582   -8.44098705582   -2.14902768389   -2.00000000000
    -10.55123381977    4.22049352791   -4.27562330794   -2.00000000000
     -4.22049352791   10.55123381977   -4.27562330794   -2.00000000000
      4.22049352791   10.55123381977   -4.27562330794   -2.00000000000
     10.55123381977    4.22049352791   -4.27562330794   -2.00000000000
     10.55123381977   -4.22049352791   -4.27562330794   -2.00000000000
      4.22049352791  -10.55123381977   -4.27562330794   -2.00000000000
     -4.22049352791  -10.55123381977   -4.27562330794   -2.00000000000
    -10.55123381977   -4.22049352791   -4.27562330794   -2.00000000000
    -10.55242967836    6.32954443328   -0.05140086690    2.00000000000
     -6.32954443328   10.55242967836   -0.05140086690    2.00000000000
      6.32954443328   10.55242967836   -0.05140086690    2.00000000000
     10.55242967836    6.32954443328   -0.05140086690    2.00000000000
     10.55242967836   -6.32954443328   -0.05140086690    2.00000000000
      6.32954443328  -10.55242967836   -0.05140086690    2.00000000000
     -6.32954443328  -10.55242967836   -0.05140086690    2.00000000000
    -10.55242967836   -6.32954443328   -0.05140086690    2.00000000000
    -10.55123381977    0.00000000000   -6.38587007189    2.00000000000
     -8.44098705582    6.33074029186   -6.38587007189    2.00000000000
     -6.33074029186    8.44098705582   -6.38587007189    2.00000000000
      0.00000000000   10.55123381977   -6.38587007189    2.00000000000
      6.33074029186    8.44098705582   -6.38587007189    2.00000000000
      8.44098705582    6.33074029186   -6.38587007189    2.00000000000
     10.55123381977    0.00000000000   -6.38587007189    2.00000000000
      8.44098705582   -6.33074029186   -6.38587007189    2.00000000000
      6.33074029186   -8.44098705582   -6.38587007189    2.00000000000
      0.00000000000  -10.55123381977   -6.38587007189    2.00000000000
     -6.33074029186   -8.44098705582   -6.38587007189    2.00000000000
     -8.44098705582   -6.33074029186   -6.38587007189    2.00000000000
    -10.55169157031    6.33028254133   -2.15696791928   -2.00000000000
     -6.33028254133   10.55169157031   -2.15696791928   -2.00000000000
      6.33028254133   10.55169157031   -2.15696791928   -2.00000000000
     10.55169157031    6.33028254133   -2.15696791928   -2.00000000000
     10.55169157031   -6.33028254133   -2.15696791928   -2.00000000000
      6.33028254133  -10.55169157031   -2.15696791928   -2.00000000000
     -6.33028254133  -10.55169157031   -2.15696791928   -2.00000000000
    -10.55169157031   -6.33028254133   -2.15696791928   -2.00000000000
    -10.55123381977    2.11024676395   -6.38587007189   -2.00000000000
     -2.11024676395   10.55123381977   -6.38587007189   -2.00000000000
      2.11024676395   10.55123381977   -6.38587007189   -2.00000000000
     10.55123381977    2.11024676395   -6.38587007189   -2.00000000000
     10.55123381977   -2.11024676395   -6.38587007189   -2.00000000000
      2.11024676395  -10.55123381977   -6.38587007189   -2.00000000000
     -2.11024676395  -10.55123381977   -6.38587007189   -2.00000000000
    -10.55123381977   -2.11024676395   -6.38587007189   -2.00000000000
    -12.66148058373    0.00000000000   -0.05042534122    2.00000000000
      0.00000000000   12.66148058373   -0.05042534122    2.00000000000
     12.66148058373    0.00000000000   -0.05042534122    2.00000000000
      0.00000000000  -12.66148058373   -0.05042534122    2.00000000000
     -8.44098705582    8.44098705582   -4.27562330794    2.00000000000
      8.44098705582    8.44098705582   -4.27562330794    2.00000000000
      8.44098705582   -8.44098705582   -4.27562330794    2.00000000000
     -8.44098705582   -8.44098705582   -4.27562330794    2.00000000000
    -12.66148058373    2.11209139723    0.00000000000   -2.00000000000
     -2.11209139723   12.66148058373    0.00000000000   -2.00000000000
      2.11209139723   12.66148058373    0.00000000000   -2.00000000000
     12.66148058373    2.11209139723    0.00000000000   -2.00000000000
     12.66148058373   -2.11209139723    0.00000000000   -2.00000000000
      2.11209139723  -12.66148058373    0.00000000000   -2.00000000000
     -2.11209139723  -12.66148058373    0.00000000000   -2.00000000000
    -12.66148058373   -2.11209139723    0.00000000000   -2.00000000000
    -12.66148058373    0.00000000000   -2.15902521756   -2.00000000000
      0.00000000000   12.66148058373   -2.15902521756   -2.00000000000
     12.66148058373    0.00000000000   -2.15902521756   -2.00000000000
      0.00000000000  -12.66148058373   -2.15902521756   -2.00000000000
    -12.66148058373    2.10973412517   -2.15218714568    2.00000000000
     -2.10973412517   12.66148058373   -2.15218714568    2.00000000000
      2.10973412517   12.66148058373   -2.15218714568    2.00000000000
     12.66148058373    2.10973412517   -2.15218714568    2.00000000000
     12.66148058373   -2.10973412517   -2.15218714568    2.00000000000
      2.10973412517  -12.66148058373   -2.15218714568    2.00000000000
     -2.10973412517  -12.66148058373   -2.15218714568    2.00000000000
    -12.66148058373   -2.10973412517   -2.15218714568    2.00000000000
    -10.55123381977    6.33074029186   -4.27562330794    2.00000000000
     -6.33074029186   10.55123381977   -4.27562330794    2.00000000000
      6.33074029186   10.55123381977   -4.27562330794    2.00000000000
     10.55123381977    6.33074029186   -4.27562330794    2.00000000000
     10.55123381977   -6.33074029186   -4.27562330794    2.00000000000
      6.33074029186  -10.55123381977   -4.27562330794    2.00000000000
     -6.33074029186  -10.55123381977   -4.27562330794    2.00000000000
    -10.55123381977   -6.33074029186   -4.27562330794    2.00000000000
    -10.55123381977    4.22049352791   -6.38587007189    2.00000000000
     -4.22049352791   10.55123381977   -6.38587007189    2.00000000000
      4.22049352791   10.55123381977   -6.38587007189    2.00000000000
     10.55123381977    4.22049352791   -6.38587007189    2.00000000000
     10.55123381977   -4.22049352791   -6.38587007189    2.00000000000
      4.22049352791  -10.55123381977   -6.38587007189    2.00000000000
     -4.22049352791  -10.55123381977   -6.38587007189    2.00000000000
    -10.55123381977   -4.22049352791   -6.38587007189    2.00000000000
    -12.66148058373    4.22049352791   -0.04765173215    2.00000000000
     -4.22049352791   12.66148058373   -0.04765173215    2.00000000000
      4.22049352791   12.66148058373   -0.04765173215    2.00000000000
     12.66148058373    4.22049352791   -0.04765173215    2.00000000000
     12.66148058373   -4.22049352791   -0.04765173215    2.00000000000
      4.22049352791  -12.66148058373   -0.04765173215    2.00000000000
     -4.22049352791  -12.66148058373   -0.04765173215    2.00000000000
    -12.66148058373   -4.22049352791   -0.04765173215    2.00000000000
    -12.66148058373    0.00000000000   -4.27562330794    2.00000000000
      0.00000000000   12.66148058373   -4.27562330794    2.00000000000
     12.66148058373    0.00000000000   -4.27562330794    2.00000000000
      0.00000000000  -12.66148058373   -4.27562330794    2.00000000000
    -12.66148058373    4.22049352791   -2.15801787533   -2.00000000000
     -4.22049352791   12.66148058373   -2.15801787533   -2.00000000000
      4.22049352791   12.66148058373   -2.15801787533   -2.00000000000
     12.66148058373    4.22049352791   -2.15801787533   -2.00000000000
     12.66148058373   -4.22049352791   -2.15801787533   -2.00000000000
      4.22049352791  -12.66148058373   -2.15801787533   -2.00000000000
     -4.22049352791  -12.66148058373   -2.15801787533   -2.00000000000
    -12.66148058373   -4.22049352791   -2.15801787533   -2.00000000000
    -10.56117131241    8.44098705582   -0.00205593177   -2.00000000000
     -8.44098705582   10.56117131241   -0.00205593177   -2.00000000000
      8.44098705582   10.56117131241   -0.00205593177   -2.00000000000
     10.56117131241    8.44098705582   -0.00205593177   -2.00000000000
     10.56117131241   -8.44098705582   -0.00205593177   -2.00000000000
      8.44098705582  -10.56117131241   -0.00205593177   -2.00000000000
     -8.44098705582  -10.56117131241   -0.00205593177   -2.00000000000
    -10.56117131241   -8.44098705582   -0.00205593177   -2.00000000000
    -12.66148058373    2.11024676395   -4.27562330794   -2.00000000000
     -2.11024676395   12.66148058373   -4.27562330794   -2.00000000000
      2.11024676395   12.66148058373   -4.27562330794   -2.00000000000
     12.66148058373    2.11024676395   -4.27562330794   -2.00000000000
     12.66148058373   -2.11024676395   -4.27562330794   -2.00000000000
      2.11024676395  -12.66148058373   -4.27562330794   -2.00000000000
     -2.11024676395  -12.66148058373   -4.27562330794   -2.00000000000
    -12.66148058373   -2.11024676395   -4.27562330794   -2.00000000000
     -8.44098705582    8.44098705582   -6.38587007189   -2.00000000000
      8.44098705582    8.44098705582   -6.38587007189   -2.00000000000
      8.44098705582   -8.44098705582   -6.38587007189   -2.00000000000
     -8.44098705582   -8.44098705582   -6.38587007189   -2.00000000000
    -10.54803992736    8.44098705582   -2.14928009216    2.00000000000
     -8.44098705582   10.54803992736   -2.14928009216    2.00000000000
      8.44098705582   10.54803992736   -2.14928009216    2.00000000000
     10.54803992736    8.44098705582   -2.14928009216    2.00000000000
     10.54803992736   -8.44098705582   -2.14928009216    2.00000000000
      8.44098705582  -10.54803992736   -2.14928009216    2.00000000000
     -8.44098705582  -10.54803992736   -2.14928009216    2.00000000000
    -10.54803992736   -8.44098705582   -2.14928009216    2.00000000000
    -10.55123381977    6.33074029186   -6.38587007189   -2.00000000000
     -6.33074029186   10.55123381977   -6.38587007189   -2.00000000000
      6.33074029186   10.55123381977   -6.38587007189   -2.00000000000
     10.55123381977    6.33074029186   -6.38587007189   -2.00000000000
     10.55123381977   -6.33074029186   -6.38587007189   -2.00000000000
      6.33074029186  -10.55123381977   -6.38587007189   -2.00000000000
     -6.33074029186  -10.55123381977   -6.38587007189   -2.00000000000
    -10.55123381977   -6.33074029186   -6.38587007189   -2.00000000000
    -12.66148058373    4.22049352791   -4.27562330794    2.00000000000
     -4.22049352791   12.66148058373   -4.27562330794    2.00000000000
      4.22049352791   12.66148058373   -4.27562330794    2.00000000000
     12.66148058373    4.22049352791   -4.27562330794    2.00000000000
     12.66148058373   -4.22049352791   -4.27562330794    2.00000000000
      4.22049352791  -12.66148058373   -4.27562330794    2.00000000000
     -4.22049352791  -12.66148058373   -4.27562330794    2.00000000000
    -12.66148058373   -4.22049352791   -4.27562330794    2.00000000000
    -12.66148058373    6.32889565859    0.00000000000   -2.00000000000
     -6.32889565859   12.66148058373    0.00000000000   -2.00000000000
      6.32889565859   12.66148058373    0.00000000000   -2.00000000000
     12.66148058373    6.32889565859    0.00000000000   -2.00000000000
     12.66148058373   -6.32889565859    0.00000000000   -2.00000000000
      6.32889565859  -12.66148058373    0.00000000000   -2.00000000000
     -6.32889565859  -12.66148058373    0.00000000000   -2.00000000000
    -12.66148058373   -6.32889565859    0.00000000000   -2.00000000000
    -10.55123381977    8.44098705582   -4.27562330794   -2.00000000000
     -8.44098705582   10.55123381977   -4.27562330794   -2.00000000000
      8.44098705582   10.55123381977   -4.27562330794   -2.00000000000
     10.55123381977    8.44098705582   -4.27562330794   -2.00000000000
     10.55123381977   -8.44098705582   -4.27562330794   -2.00000000000
      8.44098705582  -10.55123381977   -4.27562330794   -2.00000000000
     -8.44098705582  -10.55123381977   -4.27562330794   -2.00000000000
    -10.55123381977   -8.44098705582   -4.27562330794   -2.00000000000
    -12.66148058373    0.00000000000   -6.38587007189   -2.00000000000
      0.00000000000   12.66148058373   -6.38587007189   -2.00000000000
     12.66148058373    0.00000000000   -6.38587007189   -2.00000000000
      0.00000000000  -12.66148058373   -6.38587007189   -2.00000000000
    -12.66148058373    6.33125293065   -2.15218714568    2.00000000000
     -6.33125293065   12.66148058373   -2.15218714568    2.00000000000
      6.33125293065   12.66148058373   -2.15218714568    2.00000000000
     12.66148058373    6.33125293065   -2.15218714568    2.00000000000
     12.66148058373   -6.33125293065   -2.15218714568    2.00000000000
      6.33125293065  -12.66148058373   -2.15218714568    2.00000000000
     -6.33125293065  -12.66148058373   -2.15218714568    2.00000000000
    -12.66148058373   -6.33125293065   -2.15218714568    2.00000000000
    -12.66148058373    2.11024676395   -6.38587007189    2.00000000000
     -2.11024676395   12.66148058373   -6.38587007189    2.00000000000
      2.11024676395   12.66148058373   -6.38587007189    2.00000000000
     12.66148058373    2.11024676395   -6.38587007189    2.00000000000
     12.66148058373   -2.11024676395   -6.38587007189    2.00000000000
      2.11024676395  -12.66148058373   -6.38587007189    2.00000000000
     -2.11024676395  -12.66148058373   -6.38587007189    2.00000000000
    -12.66148058373   -2.11024676395   -6.38587007189    2.00000000000
    -14.76178985505    0.00000000000   -0.00205593177   -2.00000000000
      0.00000000000   14.76178985505   -0.00205593177   -2.00000000000
     14.76178985505    0.00000000000   -0.00205593177   -2.00000000000
      0.00000000000  -14.76178985505   -0.00205593177   -2.00000000000
    -12.66148058373    6.33074029186   -4.27562330794   -2.00000000000
     -6.33074029186   12.66148058373   -4.27562330794   -2.00000000000
      6.33074029186   12.66148058373   -4.27562330794   -2.00000000000
     12.66148058373    6.33074029186   -4.27562330794   -2.00000000000
     12.66148058373   -6.33074029186   -4.27562330794   -2.00000000000
      6.33074029186  -12.66148058373   -4.27562330794   -2.00000000000
     -6.33074029186  -12.66148058373   -4.27562330794   -2.00000000000
    -12.66148058373   -6.33074029186   -4.27562330794   -2.00000000000
    -12.66148058373    4.22049352791   -6.38587007189   -2.00000000000
     -4.22049352791   12.66148058373   -6.38587007189   -2.00000000000
      4.22049352791   12.66148058373   -6.38587007189   -2.00000000000
     12.66148058373    4.22049352791   -6.38587007189   -2.00000000000
     12.66148058373   -4.22049352791   -6.38587007189   -2.00000000000
      4.22049352791  -12.66148058373   -6.38587007189   -2.00000000000
     -4.22049352791  -12.66148058373   -6.38587007189   -2.00000000000
    -12.66148058373   -4.22049352791   -6.38587007189   -2.00000000000
    -14.77053148910    2.11144262254   -0.05140086690    2.00000000000
     -2.11144262254   14.77053148910   -0.05140086690    2.00000000000
      2.11144262254   14.77053148910   -0.05140086690    2.00000000000
     14.77053148910    2.11144262254   -0.05140086690    2.00000000000
     14.77053148910   -2.11144262254   -0.05140086690    2.00000000000
      2.11144262254  -14.77053148910   -0.05140086690    2.00000000000
     -2.11144262254  -14.77053148910   -0.05140086690    2.00000000000
    -14.77053148910   -2.11144262254   -0.05140086690    2.00000000000
    -10.55242967836   10.55242967836   -0.05140086690    2.00000000000
     10.55242967836   10.55242967836   -0.05140086690    2.00000000000
     10.55242967836  -10.55242967836   -0.05140086690    2.00000000000
    -10.55242967836  -10.55242967836   -0.05140086690    2.00000000000
    -14.77492124009    0.00000000000   -2.14928009216    2.00000000000
      0.00000000000   14.77492124009   -2.14928009216    2.00000000000
     14.77492124009    0.00000000000   -2.14928009216    2.00000000000
      0.00000000000  -14.77492124009   -2.14928009216    2.00000000000
    -10.55123381977    8.44098705582   -6.38587007189    2.00000000000
     -8.44098705582   10.55123381977   -6.38587007189    2.00000000000
      8.44098705582   10.55123381977   -6.38587007189    2.00000000000
     10.55123381977    8.44098705582   -6.38587007189    2.00000000000
     10.55123381977   -8.44098705582   -6.38587007189    2.00000000000
      8.44098705582  -10.55123381977   -6.38587007189    2.00000000000
     -8.44098705582  -10.55123381977   -6.38587007189    2.00000000000
    -10.55123381977   -8.44098705582   -6.38587007189    2.00000000000
    -14.77126959714    2.11070451449   -2.15696791928   -2.00000000000
     -2.11070451449   14.77126959714   -2.15696791928   -2.00000000000
      2.11070451449   14.77126959714   -2.15696791928   -2.00000000000
     14.77126959714    2.11070451449   -2.15696791928   -2.00000000000
     14.77126959714   -2.11070451449   -2.15696791928   -2.00000000000
      2.11070451449  -14.77126959714   -2.15696791928   -2.00000000000
     -2.11070451449  -14.77126959714   -2.15696791928   -2.00000000000
    -14.77126959714   -2.11070451449   -2.15696791928   -2.00000000000
    -10.55169157031   10.55169157031   -2.15696791928   -2.00000000000
     10.55169157031   10.55169157031   -2.15696791928   -2.00000000000
     10.55169157031  -10.55169157031   -2.15696791928   -2.00000000000
    -10.55169157031  -10.55169157031   -2.15696791928   -2.00000000000
    -12.66148058373    8.44098705582   -0.05042534122    2.00000000000
     -8.44098705582   12.66148058373   -0.05042534122    2.00000000000
      8.44098705582   12.66148058373   -0.05042534122    2.00000000000
     12.66148058373    8.44098705582   -0.05042534122    2.00000000000
     12.66148058373   -8.44098705582   -0.05042534122    2.00000000000
      8.44098705582  -12.66148058373   -0.05042534122    2.00000000000
     -8.44098705582  -12.66148058373   -0.05042534122    2.00000000000
    -12.66148058373   -8.44098705582   -0.05042534122    2.00000000000
    -14.76988271440    4.22049352791    0.00000000000   -2.00000000000
     -4.22049352791   14.76988271440    0.00000000000   -2.00000000000
      4.22049352791   14.76988271440    0.00000000000   -2.00000000000
     14.76988271440    4.22049352791    0.00000000000   -2.00000000000
     14.76988271440   -4.22049352791    0.00000000000   -2.00000000000
      4.22049352791  -14.76988271440    0.00000000000   -2.00000000000
     -4.22049352791  -14.76988271440    0.00000000000   -2.00000000000
    -14.76988271440   -4.22049352791    0.00000000000   -2.00000000000
    -12.66148058373    8.44098705582   -2.15902521756   -2.00000000000
     -8.44098705582   12.66148058373   -2.15902521756   -2.00000000000
      8.44098705582   12.66148058373   -2.15902521756   -2.00000000000
     12.66148058373    8.44098705582   -2.15902521756   -2.00000000000
     12.66148058373   -8.44098705582   -2.15902521756   -2.00000000000
      8.44098705582  -12.66148058373   -2.15902521756   -2.00000000000
     -8.44098705582  -12.66148058373   -2.15902521756   -2.00000000000
    -12.66148058373   -8.44098705582   -2.15902521756   -2.00000000000
    -14.77172734768    0.00000000000   -4.27562330794   -2.00000000000
      0.00000000000   14.77172734768   -4.27562330794   -2.00000000000
     14.77172734768    0.00000000000   -4.27562330794   -2.00000000000
      0.00000000000  -14.77172734768   -4.27562330794   -2.00000000000
    -14.77223998647    4.22049352791   -2.15218714568    2.00000000000
     -4.22049352791   14.77223998647   -2.15218714568    2.00000000000
      4.22049352791   14.77223998647   -2.15218714568    2.00000000000
     14.77223998647    4.22049352791   -2.15218714568    2.00000000000
     14.77223998647   -4.22049352791   -2.15218714568    2.00000000000
      4.22049352791  -14.77223998647   -2.15218714568    2.00000000000
     -4.22049352791  -14.77223998647   -2.15218714568    2.00000000000
    -14.77223998647   -4.22049352791   -2.15218714568    2.00000000000
    -14.77172734768    2.11024676395   -4.27562330794    2.00000000000
    -10.55123381977   10.55123381977   -4.27562330794    2.00000000000
     -2.11024676395   14.77172734768   -4.27562330794    2.00000000000
      2.11024676395   14.77172734768   -4.27562330794    2.00000000000
     10.55123381977   10.55123381977   -4.27562330794    2.00000000000
     14.77172734768    2.11024676395   -4.27562330794    2.00000000000
     14.77172734768   -2.11024676395   -4.27562330794    2.00000000000
     10.55123381977  -10.55123381977   -4.27562330794    2.00000000000
      2.11024676395  -14.77172734768   -4.27562330794    2.00000000000
     -2.11024676395  -14.77172734768   -4.27562330794    2.00000000000
    -10.55123381977  -10.55123381977   -4.27562330794    2.00000000000
    -14.77172734768   -2.11024676395   -4.27562330794    2.00000000000
    -12.66148058373    6.33074029186   -6.38587007189    2.00000000000
     -6.33074029186   12.66148058373   -6.38587007189    2.00000000000
      6.33074029186   12.66148058373   -6.38587007189    2.00000000000
     12.66148058373    6.33074029186   -6.38587007189    2.00000000000
     12.66148058373   -6.33074029186   -6.38587007189    2.00000000000
      6.33074029186  -12.66148058373   -6.38587007189    2.00000000000
     -6.33074029186  -12.66148058373   -6.38587007189    2.00000000000
    -12.66148058373   -6.33074029186   -6.38587007189    2.00000000000
    -12.66148058373    8.44098705582   -4.27562330794    2.00000000000
     -8.44098705582   12.66148058373   -4.27562330794    2.00000000000
      8.44098705582   12.66148058373   -4.27562330794    2.00000000000
     12.66148058373    8.44098705582   -4.27562330794    2.00000000000
     12.66148058373   -8.44098705582   -4.27562330794    2.00000000000
      8.44098705582  -12.66148058373   -4.27562330794    2.00000000000
     -8.44098705582  -12.66148058373   -4.27562330794    2.00000000000
    -12.66148058373   -8.44098705582   -4.27562330794    2.00000000000
    -14.77172734768    4.22049352791   -4.27562330794   -2.00000000000
     -4.22049352791   14.77172734768   -4.27562330794   -2.00000000000
      4.22049352791   14.77172734768   -4.27562330794   -2.00000000000
     14.77172734768    4.22049352791   -4.27562330794   -2.00000000000
     14.77172734768   -4.22049352791   -4.27562330794   -2.00000000000
      4.22049352791  -14.77172734768   -4.27562330794   -2.00000000000
     -4.22049352791  -14.77172734768   -4.27562330794   -2.00000000000
    -14.77172734768   -4.22049352791   -4.27562330794   -2.00000000000
    -14.77053148910    6.32954443328   -0.05140086690    2.00000000000
     -6.32954443328   14.77053148910   -0.05140086690    2.00000000000
      6.32954443328   14.77053148910   -0.05140086690    2.00000000000
     14.77053148910    6.32954443328   -0.05140086690    2.00000000000
     14.77053148910   -6.32954443328   -0.05140086690    2.00000000000
      6.32954443328  -14.77053148910   -0.05140086690    2.00000000000
     -6.32954443328  -14.77053148910   -0.05140086690    2.00000000000
    -14.77053148910   -6.32954443328   -0.05140086690    2.00000000000
    -14.77172734768    0.00000000000   -6.38587007189    2.00000000000
      0.00000000000   14.77172734768   -6.38587007189    2.00000000000
     14.77172734768    0.00000000000   -6.38587007189    2.00000000000
      0.00000000000  -14.77172734768   -6.38587007189    2.00000000000
    -14.77126959714    6.33028254133   -2.15696791928   -2.00000000000
     -6.33028254133   14.77126959714   -2.15696791928   -2.00000000000
      6.33028254133   14.77126959714   -2.15696791928   -2.00000000000
     14.77126959714    6.33028254133   -2.15696791928   -2.00000000000
     14.77126959714   -6.33028254133   -2.15696791928   -2.00000000000
      6.33028254133  -14.77126959714   -2.15696791928   -2.00000000000
     -6.33028254133  -14.77126959714   -2.15696791928   -2.00000000000
    -14.77126959714   -6.33028254133   -2.15696791928   -2.00000000000
    -14.77172734768    2.11024676395   -6.38587007189   -2.00000000000
    -10.55123381977   10.55123381977   -6.38587007189   -2.00000000000
     -2.11024676395   14.77172734768   -6.38587007189   -2.00000000000
      2.11024676395   14.77172734768   -6.38587007189   -2.00000000000
     10.55123381977   10.55123381977   -6.38587007189   -2.00000000000
     14.77172734768    2.11024676395   -6.38587007189   -2.00000000000
     14.77172734768   -2.11024676395   -6.38587007189   -2.00000000000
     10.55123381977  -10.55123381977   -6.38587007189   -2.00000000000
      2.11024676395  -14.77172734768   -6.38587007189   -2.00000000000
     -2.11024676395  -14.77172734768   -6.38587007189   -2.00000000000
    -10.55123381977  -10.55123381977   -6.38587007189   -2.00000000000
    -14.77172734768   -2.11024676395   -6.38587007189   -2.00000000000
    -12.66148058373   10.55307845305    0.00000000000   -2.00000000000
    -10.55307845305   12.66148058373    0.00000000000   -2.00000000000
     10.55307845305   12.66148058373    0.00000000000   -2.00000000000
     12.66148058373   10.55307845305    0.00000000000   -2.00000000000
     12.66148058373  -10.55307845305    0.00000000000   -2.00000000000
     10.55307845305  -12.66148058373    0.00000000000   -2.00000000000
    -10.55307845305  -12.66148058373    0.00000000000   -2.00000000000
    -12.66148058373  -10.55307845305    0.00000000000   -2.00000000000
    -12.66148058373    8.44098705582   -6.38587007189   -2.00000000000
     -8.44098705582   12.66148058373   -6.38587007189   -2.00000000000
      8.44098705582   12.66148058373   -6.38587007189   -2.00000000000
     12.66148058373    8.44098705582   -6.38587007189   -2.00000000000
     12.66148058373   -8.44098705582   -6.38587007189   -2.00000000000
      8.44098705582  -12.66148058373   -6.38587007189   -2.00000000000
     -8.44098705582  -12.66148058373   -6.38587007189   -2.00000000000
    -12.66148058373   -8.44098705582   -6.38587007189   -2.00000000000
    -12.66148058373   10.55072118099   -2.15218714568    2.00000000000
    -10.55072118099   12.66148058373   -2.15218714568    2.00000000000
     10.55072118099   12.66148058373   -2.15218714568    2.00000000000
     12.66148058373   10.55072118099   -2.15218714568    2.00000000000
     12.66148058373  -10.55072118099   -2.15218714568    2.00000000000
     10.55072118099  -12.66148058373   -2.15218714568    2.00000000000
    -10.55072118099  -12.66148058373   -2.15218714568    2.00000000000
    -12.66148058373  -10.55072118099   -2.15218714568    2.00000000000
    -14.77172734768    6.33074029186   -4.27562330794    2.00000000000
     -6.33074029186   14.77172734768   -4.27562330794    2.00000000000
      6.33074029186   14.77172734768   -4.27562330794    2.00000000000
     14.77172734768    6.33074029186   -4.27562330794    2.00000000000
     14.77172734768   -6.33074029186   -4.27562330794    2.00000000000
      6.33074029186  -14.77172734768   -4.27562330794    2.00000000000
     -6.33074029186  -14.77172734768   -4.27562330794    2.00000000000
    -14.77172734768   -6.33074029186   -4.27562330794    2.00000000000
    -14.77172734768    4.22049352791   -6.38587007189    2.00000000000
     -4.22049352791   14.77172734768   -6.38587007189    2.00000000000
      4.22049352791   14.77172734768   -6.38587007189    2.00000000000
     14.77172734768    4.22049352791   -6.38587007189    2.00000000000
     14.77172734768   -4.22049352791   -6.38587007189    2.00000000000
      4.22049352791  -14.77172734768   -6.38587007189    2.00000000000
     -4.22049352791  -14.77172734768   -6.38587007189    2.00000000000
    -14.77172734768   -4.22049352791   -6.38587007189    2.00000000000
    -16.88197411163    0.00000000000   -0.00772802266    2.00000000000
      0.00000000000   16.88197411163   -0.00772802266    2.00000000000
     16.88197411163    0.00000000000   -0.00772802266    2.00000000000
      0.00000000000  -16.88197411163   -0.00772802266    2.00000000000
    -14.76178985505    8.44098705582   -0.00205593177   -2.00000000000
     -8.44098705582   14.76178985505   -0.00205593177   -2.00000000000
      8.44098705582   14.76178985505   -0.00205593177   -2.00000000000
     14.76178985505    8.44098705582   -0.00205593177   -2.00000000000
     14.76178985505   -8.44098705582   -0.00205593177   -2.00000000000
      8.44098705582  -14.76178985505   -0.00205593177   -2.00000000000
     -8.44098705582  -14.76178985505   -0.00205593177   -2.00000000000
    -14.76178985505   -8.44098705582   -0.00205593177   -2.00000000000
    -16.88197411163    2.12018425659   -0.00205593177   -2.00000000000
     -2.12018425659   16.88197411163   -0.00205593177   -2.00000000000
      2.12018425659   16.88197411163   -0.00205593177   -2.00000000000
     16.88197411163    2.12018425659   -0.00205593177   -2.00000000000
     16.88197411163   -2.12018425659   -0.00205593177   -2.00000000000
      2.12018425659  -16.88197411163   -0.00205593177   -2.00000000000
     -2.12018425659  -16.88197411163   -0.00205593177   -2.00000000000
    -16.88197411163   -2.12018425659   -0.00205593177   -2.00000000000
    -16.88197411163    0.00000000000   -2.14902768389   -2.00000000000
      0.00000000000   16.88197411163   -2.14902768389   -2.00000000000
     16.88197411163    0.00000000000   -2.14902768389   -2.00000000000
      0.00000000000  -16.88197411163   -2.14902768389   -2.00000000000
    -12.66148058373   10.55123381977   -4.27562330794   -2.00000000000
    -10.55123381977   12.66148058373   -4.27562330794   -2.00000000000
     10.55123381977   12.66148058373   -4.27562330794   -2.00000000000
     12.66148058373   10.55123381977   -4.27562330794   -2.00000000000
     12.66148058373  -10.55123381977   -4.27562330794   -2.00000000000
     10.55123381977  -12.66148058373   -4.27562330794   -2.00000000000
    -10.55123381977  -12.66148058373   -4.27562330794   -2.00000000000
    -12.66148058373  -10.55123381977   -4.27562330794   -2.00000000000
    -16.88197411163    2.10705287155   -2.14928009216    2.00000000000
     -2.10705287155   16.88197411163   -2.14928009216    2.00000000000
      2.10705287155   16.88197411163   -2.14928009216    2.00000000000
     16.88197411163    2.10705287155   -2.14928009216    2.00000000000
     16.88197411163   -2.10705287155   -2.14928009216    2.00000000000
      2.10705287155  -16.88197411163   -2.14928009216    2.00000000000
     -2.10705287155  -16.88197411163   -2.14928009216    2.00000000000
    -16.88197411163   -2.10705287155   -2.14928009216    2.00000000000
    -14.77492124009    8.44098705582   -2.14928009216    2.00000000000
     -8.44098705582   14.77492124009   -2.14928009216    2.00000000000
      8.44098705582   14.77492124009   -2.14928009216    2.00000000000
     14.77492124009    8.44098705582   -2.14928009216    2.00000000000
     14.77492124009   -8.44098705582   -2.14928009216    2.00000000000
      8.44098705582  -14.77492124009   -2.14928009216    2.00000000000
     -8.44098705582  -14.77492124009   -2.14928009216    2.00000000000
    -14.77492124009   -8.44098705582   -2.14928009216    2.00000000000
    -14.77172734768    6.33074029186   -6.38587007189   -2.00000000000
     -6.33074029186   14.77172734768   -6.38587007189   -2.00000000000
      6.33074029186   14.77172734768   -6.38587007189   -2.00000000000
     14.77172734768    6.33074029186   -6.38587007189   -2.00000000000
     14.77172734768   -6.33074029186   -6.38587007189   -2.00000000000
      6.33074029186  -14.77172734768   -6.38587007189   -2.00000000000
     -6.33074029186  -14.77172734768   -6.38587007189   -2.00000000000
    -14.77172734768   -6.33074029186   -6.38587007189   -2.00000000000
    -16.88197411163    4.22049352791   -0.05042534122    2.00000000000
     -4.22049352791   16.88197411163   -0.05042534122    2.00000000000
      4.22049352791   16.88197411163   -0.05042534122    2.00000000000
     16.88197411163    4.22049352791   -0.05042534122    2.00000000000
     16.88197411163   -4.22049352791   -0.05042534122    2.00000000000
      4.22049352791  -16.88197411163   -0.05042534122    2.00000000000
     -4.22049352791  -16.88197411163   -0.05042534122    2.00000000000
    -16.88197411163   -4.22049352791   -0.05042534122    2.00000000000
    -16.88197411163    0.00000000000   -4.27562330794    2.00000000000
      0.00000000000   16.88197411163   -4.27562330794    2.00000000000
     16.88197411163    0.00000000000   -4.27562330794    2.00000000000
      0.00000000000  -16.88197411163   -4.27562330794    2.00000000000
    -16.88197411163    4.22049352791   -2.15902521756   -2.00000000000
     -4.22049352791   16.88197411163   -2.15902521756   -2.00000000000
      4.22049352791   16.88197411163   -2.15902521756   -2.00000000000
     16.88197411163    4.22049352791   -2.15902521756   -2.00000000000
     16.88197411163   -4.22049352791   -2.15902521756   -2.00000000000
      4.22049352791  -16.88197411163   -2.15902521756   -2.00000000000
     -4.22049352791  -16.88197411163   -2.15902521756   -2.00000000000
    -16.88197411163   -4.22049352791   -2.15902521756   -2.00000000000
    -16.88197411163    2.11024676395   -4.27562330794   -2.00000000000
    -14.77172734768    8.44098705582   -4.27562330794   -2.00000000000
     -8.44098705582   14.77172734768   -4.27562330794   -2.00000000000
     -2.11024676395   16.88197411163   -4.27562330794   -2.00000000000
      2.11024676395   16.88197411163   -4.27562330794   -2.00000000000
      8.44098705582   14.77172734768   -4.27562330794   -2.00000000000
     14.77172734768    8.44098705582   -4.27562330794   -2.00000000000
     16.88197411163    2.11024676395   -4.27562330794   -2.00000000000
     16.88197411163   -2.11024676395   -4.27562330794   -2.00000000000
     14.77172734768   -8.44098705582   -4.27562330794   -2.00000000000
      8.44098705582  -14.77172734768   -4.27562330794   -2.00000000000
      2.11024676395  -16.88197411163   -4.27562330794   -2.00000000000
     -2.11024676395  -16.88197411163   -4.27562330794   -2.00000000000
     -8.44098705582  -14.77172734768   -4.27562330794   -2.00000000000
    -14.77172734768   -8.44098705582   -4.27562330794   -2.00000000000
    -16.88197411163   -2.11024676395   -4.27562330794   -2.00000000000
    -12.66148058373   10.55123381977   -6.38587007189    2.00000000000
    -10.55123381977   12.66148058373   -6.38587007189    2.00000000000
     10.55123381977   12.66148058373   -6.38587007189    2.00000000000
     12.66148058373   10.55123381977   -6.38587007189    2.00000000000
     12.66148058373  -10.55123381977   -6.38587007189    2.00000000000
     10.55123381977  -12.66148058373   -6.38587007189    2.00000000000
    -10.55123381977  -12.66148058373   -6.38587007189    2.00000000000
    -12.66148058373  -10.55123381977   -6.38587007189    2.00000000000
    -12.66148058373   12.66148058373   -0.04765173215    2.00000000000
     12.66148058373   12.66148058373   -0.04765173215    2.00000000000
     12.66148058373  -12.66148058373   -0.04765173215    2.00000000000
    -12.66148058373  -12.66148058373   -0.04765173215    2.00000000000
    -16.88197411163    4.22049352791   -4.27562330794    2.00000000000
     -4.22049352791   16.88197411163   -4.27562330794    2.00000000000
      4.22049352791   16.88197411163   -4.27562330794    2.00000000000
     16.88197411163    4.22049352791   -4.27562330794    2.00000000000
     16.88197411163   -4.22049352791   -4.27562330794    2.00000000000
      4.22049352791  -16.88197411163   -4.27562330794    2.00000000000
     -4.22049352791  -16.88197411163   -4.27562330794    2.00000000000
    -16.88197411163   -4.22049352791   -4.27562330794    2.00000000000
    -16.88197411163    6.32080279923   -0.00205593177   -2.00000000000
     -6.32080279923   16.88197411163   -0.00205593177   -2.00000000000
      6.32080279923   16.88197411163   -0.00205593177   -2.00000000000
     16.88197411163    6.32080279923   -0.00205593177   -2.00000000000
     16.88197411163   -6.32080279923   -0.00205593177   -2.00000000000
      6.32080279923  -16.88197411163   -0.00205593177   -2.00000000000
     -6.32080279923  -16.88197411163   -0.00205593177   -2.00000000000
    -16.88197411163   -6.32080279923   -0.00205593177   -2.00000000000
    -12.66148058373   12.66148058373   -2.15801787533   -2.00000000000
     12.66148058373   12.66148058373   -2.15801787533   -2.00000000000
     12.66148058373  -12.66148058373   -2.15801787533   -2.00000000000
    -12.66148058373  -12.66148058373   -2.15801787533   -2.00000000000
    -16.88197411163    0.00000000000   -6.38587007189   -2.00000000000
      0.00000000000   16.88197411163   -6.38587007189   -2.00000000000
     16.88197411163    0.00000000000   -6.38587007189   -2.00000000000
      0.00000000000  -16.88197411163   -6.38587007189   -2.00000000000
    -14.77053148910   10.55242967836   -0.05140086690    2.00000000000
    -10.55242967836   14.77053148910   -0.05140086690    2.00000000000
     10.55242967836   14.77053148910   -0.05140086690    2.00000000000
     14.77053148910   10.55242967836   -0.05140086690    2.00000000000
     14.77053148910  -10.55242967836   -0.05140086690    2.00000000000
     10.55242967836  -14.77053148910   -0.05140086690    2.00000000000
    -10.55242967836  -14.77053148910   -0.05140086690    2.00000000000
    -14.77053148910  -10.55242967836   -0.05140086690    2.00000000000
    -16.88197411163    6.33393418427   -2.14928009216    2.00000000000
     -6.33393418427   16.88197411163   -2.14928009216    2.00000000000
      6.33393418427   16.88197411163   -2.14928009216    2.00000000000
     16.88197411163    6.33393418427   -2.14928009216    2.00000000000
     16.88197411163   -6.33393418427   -2.14928009216    2.00000000000
[...]
   61   40O2px        40O1d-2       40O1d-1       40O1d0        40O1d+1       40O1d+2       41O1s         41O2s         41O3s         41O1pz     
   62   41O1py        41O1px        41O2pz        41O2py        41O2px        41O1d-2       41O1d-1       41O1d0        41O1d+1       41O1d+2    
   63   42Mg1s        42Mg2s        42Mg3s        42Mg4s        42Mg1pz       42Mg1py       42Mg1px       42Mg2pz       42Mg2py       42Mg2px    
   64   42Mg3pz       42Mg3py       42Mg3px       42Mg1d-2      42Mg1d-1      42Mg1d0       42Mg1d+1      42Mg1d+2      43Mg1s        43Mg2s     
   65   43Mg3s        43Mg4s        43Mg1pz       43Mg1py       43Mg1px       43Mg2pz       43Mg2py       43Mg2px       43Mg3pz       43Mg3py    
   66   43Mg3px       43Mg1d-2      43Mg1d-1      43Mg1d0       43Mg1d+1      43Mg1d+2      44Mg1s        44Mg2s        44Mg3s        44Mg4s     
   67   44Mg1pz       44Mg1py       44Mg1px       44Mg2pz       44Mg2py       44Mg2px       44Mg3pz       44Mg3py       44Mg3px       44Mg1d-2   
   68   44Mg1d-1      44Mg1d0       44Mg1d+1      44Mg1d+2      45Mg1s        45Mg2s        45Mg3s        45Mg4s        45Mg1pz       45Mg1py    
   69   45Mg1px       45Mg2pz       45Mg2py       45Mg2px       45Mg3pz       45Mg3py       45Mg3px       45Mg1d-2      45Mg1d-1      45Mg1d0    
   70   45Mg1d+1      45Mg1d+2      46Mg1s        46Mg2s        46Mg3s        46Mg4s        46Mg1pz       46Mg1py       46Mg1px       46Mg2pz    
   71   46Mg2py       46Mg2px       46Mg3pz       46Mg3py       46Mg3px       46Mg1d-2      46Mg1d-1      46Mg1d0       46Mg1d+1      46Mg1d+2   
   72   47Mg1s        47Mg2s        47Mg3s        47Mg4s        47Mg1pz       47Mg1py       47Mg1px       47Mg2pz       47Mg2py       47Mg2px    
   73   47Mg3pz       47Mg3py       47Mg3px       47Mg1d-2      47Mg1d-1      47Mg1d0       47Mg1d+1      47Mg1d+2      48Mg1s        48Mg2s     
   74   48Mg3s        48Mg4s        48Mg1pz       48Mg1py       48Mg1px       48Mg2pz       48Mg2py       48Mg2px       48Mg3pz       48Mg3py    
   75   48Mg3px       48Mg1d-2      48Mg1d-1      48Mg1d0       48Mg1d+1      48Mg1d+2      49Mg1s        49Mg2s        49Mg3s        49Mg4s     
   76   49Mg1pz       49Mg1py       49Mg1px       49Mg2pz       49Mg2py       49Mg2px       49Mg3pz       49Mg3py       49Mg3px       49Mg1d-2   
   77   49Mg1d-1      49Mg1d0       49Mg1d+1      49Mg1d+2      50Mg1s        50Mg2s        50Mg3s        50Mg4s        50Mg1pz       50Mg1py    
   78   50Mg1px       50Mg2pz       50Mg2py       50Mg2px       50Mg3pz       50Mg3py       50Mg3px       50Mg1d-2      50Mg1d-1      50Mg1d0    
   79   50Mg1d+1      50Mg1d+2      51Mg1s        51Mg2s        51Mg3s        51Mg4s        51Mg1pz       51Mg1py       51Mg1px       51Mg2pz    
   80   51Mg2py       51Mg2px       51Mg3pz       51Mg3py       51Mg3px       51Mg1d-2      51Mg1d-1      51Mg1d0       51Mg1d+1      51Mg1d+2   
   81   52Mg1s        52Mg2s        52Mg3s        52Mg4s        52Mg1pz       52Mg1py       52Mg1px       52Mg2pz       52Mg2py       52Mg2px    
   82   52Mg3pz       52Mg3py       52Mg3px       52Mg1d-2      52Mg1d-1      52Mg1d0       52Mg1d+1      52Mg1d+2      53Mg1s        53Mg2s     
   83   53Mg3s        53Mg4s        53Mg1pz       53Mg1py       53Mg1px       53Mg2pz       53Mg2py       53Mg2px       53Mg3pz       53Mg3py    
   84   53Mg3px       53Mg1d-2      53Mg1d-1      53Mg1d0       53Mg1d+1      53Mg1d+2      54O1s         54O2s         54O3s         54O1pz     
   85   54O1py        54O1px        54O2pz        54O2py        54O2px        54O1d-2       54O1d-1       54O1d0        54O1d+1       54O1d+2    
   86   55O1s         55O2s         55O3s         55O1pz        55O1py        55O1px        55O2pz        55O2py        55O2px        55O1d-2    
   87   55O1d-1       55O1d0        55O1d+1       55O1d+2       56O1s         56O2s         56O3s         56O1pz        56O1py        56O1px     
   88   56O2pz        56O2py        56O2px        56O1d-2       56O1d-1       56O1d0        56O1d+1       56O1d+2       57O1s         57O2s      
   89   57O3s         57O1pz        57O1py        57O1px        57O2pz        57O2py        57O2px        57O1d-2       57O1d-1       57O1d0     
   90   57O1d+1       57O1d+2       58O1s         58O2s         58O3s         58O1pz        58O1py        58O1px        58O2pz        58O2py     
   91   58O2px        58O1d-2       58O1d-1       58O1d0        58O1d+1       58O1d+2       59O1s         59O2s         59O3s         59O1pz     
   92   59O1py        59O1px        59O2pz        59O2py        59O2px        59O1d-2       59O1d-1       59O1d0        59O1d+1       59O1d+2    
   93   60O1s         60O2s         60O3s         60O1pz        60O1py        60O1px        60O2pz        60O2py        60O2px        60O1d-2    
   94   60O1d-1       60O1d0        60O1d+1       60O1d+2       61O1s         61O2s         61O3s         61O1pz        61O1py        61O1px     
   95   61O2pz        61O2py        61O2px        61O1d-2       61O1d-1       61O1d0        61O1d+1       61O1d+2       62O1s         62O2s      
   96   62O3s         62O1pz        62O1py        62O1px        62O2pz        62O2py        62O2px        62O1d-2       62O1d-1       62O1d0     
   97   62O1d+1       62O1d+2       63O1s         63O2s         63O3s         63O1pz        63O1py        63O1px        63O2pz        63O2py     
   98   63O2px        63O1d-2       63O1d-1       63O1d0        63O1d+1       63O1d+2       64O1s         64O2s         64O3s         64O1pz     
   99   64O1py        64O1px        64O2pz        64O2py        64O2px        64O1d-2       64O1d-1       64O1d0        64O1d+1       64O1d+2    
  100   65O1s         65O2s         65O3s         65O1pz        65O1py        65O1px        65O2pz        65O2py        65O2px        65O1d-2    
  101   65O1d-1       65O1d0        65O1d+1       65O1d+2       66O1s         66O2s         66O3s         66O1pz        66O1py        66O1px     
  102   66O2pz        66O2py        66O2px        66O1d-2       66O1d-1       66O1d0        66O1d+1       66O1d+2       67O1s         67O2s      
  103   67O3s         67O1pz        67O1py        67O1px        67O2pz        67O2py        67O2px        67O1d-2       67O1d-1       67O1d0     
  104   67O1d+1       67O1d+2       68O1s         68O2s         68O3s         68O1pz        68O1py        68O1px        68O2pz        68O2py     
  105   68O2px        68O1d-2       68O1d-1       68O1d0        68O1d+1       68O1d+2       69O1s         69O2s         69O3s         69O1pz     
  106   69O1py        69O1px        69O2pz        69O2py        69O2px        69O1d-2       69O1d-1       69O1d0        69O1d+1       69O1d+2    
  107   70O1s         70O2s         70O3s         70O1pz        70O1py        70O1px        70O2pz        70O2py        70O2px        70O1d-2    
  108   70O1d-1       70O1d0        70O1d+1       70O1d+2       71Mg1s        71Mg2s        71Mg3s        71Mg4s        71Mg1pz       71Mg1py    
  109   71Mg1px       71Mg2pz       71Mg2py       71Mg2px       71Mg3pz       71Mg3py       71Mg3px       71Mg1d-2      71Mg1d-1      71Mg1d0    
  110   71Mg1d+1      71Mg1d+2      72Mg1s        72Mg2s        72Mg3s        72Mg4s        72Mg1pz       72Mg1py       72Mg1px       72Mg2pz    
  111   72Mg2py       72Mg2px       72Mg3pz       72Mg3py       72Mg3px       72Mg1d-2      72Mg1d-1      72Mg1d0       72Mg1d+1      72Mg1d+2   
  112   73Mg1s        73Mg2s        73Mg3s        73Mg4s        73Mg1pz       73Mg1py       73Mg1px       73Mg2pz       73Mg2py       73Mg2px    
  113   73Mg3pz       73Mg3py       73Mg3px       73Mg1d-2      73Mg1d-1      73Mg1d0       73Mg1d+1      73Mg1d+2      74Mg1s        74Mg2s     
  114   74Mg3s        74Mg4s        74Mg1pz       74Mg1py       74Mg1px       74Mg2pz       74Mg2py       74Mg2px       74Mg3pz       74Mg3py    
  115   74Mg3px       74Mg1d-2      74Mg1d-1      74Mg1d0       74Mg1d+1      74Mg1d+2      75Mg1s        75Mg2s        75Mg3s        75Mg4s     
  116   75Mg1pz       75Mg1py       75Mg1px       75Mg2pz       75Mg2py       75Mg2px       75Mg3pz       75Mg3py       75Mg3px       75Mg1d-2   
  117   75Mg1d-1      75Mg1d0       75Mg1d+1      75Mg1d+2      76Mg1s        76Mg2s        76Mg3s        76Mg4s        76Mg1pz       76Mg1py    
  118   76Mg1px       76Mg2pz       76Mg2py       76Mg2px       76Mg3pz       76Mg3py       76Mg3px       76Mg1d-2      76Mg1d-1      76Mg1d0    
  119   76Mg1d+1      76Mg1d+2      77Mg1s        77Mg2s        77Mg3s        77Mg4s        77Mg1pz       77Mg1py       77Mg1px       77Mg2pz    
  120   77Mg2py       77Mg2px       77Mg3pz       77Mg3py       77Mg3px       77Mg1d-2      77Mg1d-1      77Mg1d0       77Mg1d+1      77Mg1d+2   
  121   78Mg1s        78Mg2s        78Mg3s        78Mg4s        78Mg1pz       78Mg1py       78Mg1px       78Mg2pz       78Mg2py       78Mg2px    
  122   78Mg3pz       78Mg3py       78Mg3px       78Mg1d-2      78Mg1d-1      78Mg1d0       78Mg1d+1      78Mg1d+2      79O1s         79O2s      
  123   79O3s         79O1pz        79O1py        79O1px        79O2pz        79O2py        79O2px        79O1d-2       79O1d-1       79O1d0     
  124   79O1d+1       79O1d+2       80O1s         80O2s         80O3s         80O1pz        80O1py        80O1px        80O2pz        80O2py     
  125   80O2px        80O1d-2       80O1d-1       80O1d0        80O1d+1       80O1d+2       81O1s         81O2s         81O3s         81O1pz     
  126   81O1py        81O1px        81O2pz        81O2py        81O2px        81O1d-2       81O1d-1       81O1d0        81O1d+1       81O1d+2    
  127   82O1s         82O2s         82O3s         82O1pz        82O1py        82O1px        82O2pz        82O2py        82O2px        82O1d-2    
  128   82O1d-1       82O1d0        82O1d+1       82O1d+2       83O1s         83O2s         83O3s         83O1pz        83O1py        83O1px     
  129   83O2pz        83O2py        83O2px        83O1d-2       83O1d-1       83O1d0        83O1d+1       83O1d+2       84O1s         84O2s      
  130   84O3s         84O1pz        84O1py        84O1px        84O2pz        84O2py        84O2px        84O1d-2       84O1d-1       84O1d0     
  131   84O1d+1       84O1d+2       85O1s         85O2s         85O3s         85O1pz        85O1py        85O1px        85O2pz        85O2py     
  132   85O2px        85O1d-2       85O1d-1       85O1d0        85O1d+1       85O1d+2       86O1s         86O2s         86O3s         86O1pz     
  133   86O1py        86O1px        86O2pz        86O2py        86O2px        86O1d-2       86O1d-1       86O1d0        86O1d+1       86O1d+2    
  134   87O1s         87O2s         87O3s         87O1pz        87O1py        87O1px        87O2pz        87O2py        87O2px        87O1d-2    
  135   87O1d-1       87O1d0        87O1d+1       87O1d+2       88O1s         88O2s         88O3s         88O1pz        88O1py        88O1px     
  136   88O2pz        88O2py        88O2px        88O1d-2       88O1d-1       88O1d0        88O1d+1       88O1d+2       89O1s         89O2s      
  137   89O3s         89O1pz        89O1py        89O1px        89O2pz        89O2py        89O2px        89O1d-2       89O1d-1       89O1d0     
  138   89O1d+1       89O1d+2       90O1s         90O2s         90O3s         90O1pz        90O1py        90O1px        90O2pz        90O2py     
  139   90O2px        90O1d-2       90O1d-1       90O1d0        90O1d+1       90O1d+2       91O1s         91O2s         91O3s         91O1pz     
  140   91O1py        91O1px        91O2pz        91O2py        91O2px        91O1d-2       91O1d-1       91O1d0        91O1d+1       91O1d+2    
  141   92O1s         92O2s         92O3s         92O1pz        92O1py        92O1px        92O2pz        92O2py        92O2px        92O1d-2    
  142   92O1d-1       92O1d0        92O1d+1       92O1d+2       93O1s         93O2s         93O3s         93O1pz        93O1py        93O1px     
  143   93O2pz        93O2py        93O2px        93O1d-2       93O1d-1       93O1d0        93O1d+1       93O1d+2       94O1s         94O2s      
  144   94O3s         94O1pz        94O1py        94O1px        94O2pz        94O2py        94O2px        94O1d-2       94O1d-1       94O1d0     
  145   94O1d+1       94O1d+2       95O1s         95O2s         95O3s         95O1pz        95O1py        95O1px        95O2pz        95O2py     
  146   95O2px        95O1d-2       95O1d-1       95O1d0        95O1d+1       95O1d+2       96O1s         96O2s         96O3s         96O1pz     
  147   96O1py        96O1px        96O2pz        96O2py        96O2px        96O1d-2       96O1d-1       96O1d0        96O1d+1       96O1d+2    
  148   97O1s         97O2s         97O3s         97O1pz        97O1py        97O1px        97O2pz        97O2py        97O2px        97O1d-2    
  149   97O1d-1       97O1d0        97O1d+1       97O1d+2       98O1s         98O2s         98O3s         98O1pz        98O1py        98O1px     
  150   98O2pz        98O2py        98O2px        98O1d-2       98O1d-1       98O1d0        98O1d+1       98O1d+2       99O1s         99O2s      
  151   99O3s         99O1pz        99O1py        99O1px        99O2pz        99O2py        99O2px        99O1d-2       99O1d-1       99O1d0     
  152   99O1d+1       99O1d+2      100O1s        100O2s        100O3s        100O1pz       100O1py       100O1px       100O2pz       100O2py     
  153  100O2px       100O1d-2      100O1d-1      100O1d0       100O1d+1      100O1d+2      101O1s        101O2s        101O3s        101O1pz     
  154  101O1py       101O1px       101O2pz       101O2py       101O2px       101O1d-2      101O1d-1      101O1d0       101O1d+1      101O1d+2    
  155  102O1s        102O2s        102O3s        102O1pz       102O1py       102O1px       102O2pz       102O2py       102O2px       102O1d-2    
  156  102O1d-1      102O1d0       102O1d+1      102O1d+2    
 
 Maximum number of basis functions per shell:   35
 Total number of basis functions:   1564
 
 
 Effective core potentials:
 
 103  Mg ecp-12              
 104  Mg ecp-12              
 105  Mg ecp-12              
 106  Mg ecp-12              
 107  Mg ecp-12              
 108  Mg ecp-12              
 109  Mg ecp-12              
 110  Mg ecp-12              
 111  Mg ecp-12              
 112  Mg ecp-12              
 113  Mg ecp-12              
 114  Mg ecp-12              
 115  Mg ecp-12              
 116  Mg ecp-12              
 117  Mg ecp-12              
 118  Mg ecp-12              
 119  Mg ecp-12              
 120  Mg ecp-12              
 121  Mg ecp-12              
 122  Mg ecp-12              
 123  Mg ecp-12              
 124  Mg ecp-12              
 125  Mg ecp-12              
 126  Mg ecp-12              
 127  Mg ecp-12              
 128  Mg ecp-12              
 129  Mg ecp-12              
 130  Mg ecp-12              
 131  Mg ecp-12              
 132  Mg ecp-12              
 133  Mg ecp-12              
 134  Mg ecp-12              
 135  Mg ecp-12              
 136  Mg ecp-12              
 137  Mg ecp-12              
 138  Mg ecp-12              
 139  Mg ecp-12              
 140  Mg ecp-12              
 141  Mg ecp-12              
 142  Mg ecp-12              
 143  Mg ecp-12              
 144  Mg ecp-12              
 145  Mg ecp-12              
 146  Mg ecp-12              
 147  Mg ecp-12              
 148  Mg ecp-12              
 149  Mg ecp-12              
 150  Mg ecp-12              
 151  Mg ecp-12              
 152  Mg ecp-12              
 153  Mg ecp-12              
 154  Mg ecp-12              
 155  Mg ecp-12              
 156  Mg ecp-12              
 157  Mg ecp-12              
 158  Mg ecp-12              
 159  Mg ecp-12              
 160  Mg ecp-12              
 161  Mg ecp-12              
 162  Mg ecp-12              
 163  Mg ecp-12              
 164  Mg ecp-12              
 165  Mg ecp-12              
 166  Mg ecp-12              
 167  Mg ecp-12              
 168  Mg ecp-12              
 169  Mg ecp-12              
 170  Mg ecp-12              
 171  Mg ecp-12              
 172  Mg ecp-12              
 173  Mg ecp-12              
 174  Mg ecp-12              
 175  Mg ecp-12              
 176  Mg ecp-12              
 177  Mg ecp-12              
 178  Mg ecp-12              
 179  Mg ecp-12              
 180  Mg ecp-12              
 181  Mg ecp-12              
 182  Mg ecp-12              
 183  Mg ecp-12              
 184  Mg ecp-12              
 185  Mg ecp-12              
 186  Mg ecp-12              
 187  Mg ecp-12              
 188  Mg ecp-12              
 189  Mg ecp-12              
 190  Mg ecp-12              
 191  Mg ecp-12              
 192  Mg ecp-12              
 193  Mg ecp-12              
 194  Mg ecp-12              
 195  Mg ecp-12              
 196  Mg ecp-12              
 197  Mg ecp-12              
 198  Mg ecp-12              
 199  Mg ecp-12              
 200  Mg ecp-12              
 201  Mg ecp-12              
 202  Mg ecp-12              
 203  Mg ecp-12              
 204  Mg ecp-12              
 205  Mg ecp-12              
 206  Mg ecp-12              
 207  Mg ecp-12              
 208  Mg ecp-12              
 209  Mg ecp-12              
 210  Mg ecp-12              
 211  Mg ecp-12              
 212  Mg ecp-12              
 213  Mg ecp-12              
 214  Mg ecp-12              
 215  Mg ecp-12              
 216  Mg ecp-12              
 217  Mg ecp-12              
 218  Mg ecp-12              
 219  Mg ecp-12              
 220  Mg ecp-12              
 221  Mg ecp-12              
 222  Mg ecp-12              
 223  Mg ecp-12              
 224  Mg ecp-12              
 225  Mg ecp-12              
 226  Mg ecp-12              
 
 Calculation of prescreening integrals...
 CPU time [min]:    25.360                   Wall time [min]:     0.886
 
 Calculation of two-center Coulomb integrals...
   1% done.
  12% done.
  23% done.
  34% done.
  45% done.
  56% done.
  67% done.
  78% done.
  89% done.
 100% done.
 CPU time [min]:    25.718                   Wall time [min]:     0.898
 
 Cholesky decomposition of the inverse of the two-center matrix...
 CPU time [min]:    26.420                   Wall time [min]:     0.938
 
 Calculation of three-center Coulomb integrals...
   1% done.
  12% done.
  23% done.
  34% done.
  45% done.
  56% done.
  67% done.
  78% done.
  89% done.
 100% done.
 CPU time [min]:   130.632                   Wall time [min]:     4.230

 ************************ 2023-04-26 09:01:28 *************************
 Executing drpa...

 Three-index integral transformation and DF-MP2 calculation
 
 Allocation of 200.0 Gbytes of memory...
 Minimal memory requirement for (ai|P) integrals:     1462.9 MB

 Calculating (ai|P) integrals...
 Number of integral batches:    3
 Occupied indices per batch:   92
 
 Transforming integrals of batch 1...
 CPU time [min]:  2798.564                   Wall time [min]:   100.759
 Transforming integrals of batch 2...
 CPU time [min]: 10823.403                   Wall time [min]:   358.881
 Transforming integrals of batch 3...
 CPU time [min]: 22277.905                   Wall time [min]:   707.890
 
 
 
 Reference energy [au]:                    -20975.686301800233
 DF-MP2 singlet pair energy [au]:             -11.087701266298
 DF-MP2 triplet pair energy [au]:              -4.344892989045
 DF-SCS-MP2 correlation energy [au]:          -14.753539182573
 DF-SCS-MP2 energy [au]:                   -20990.439840982806
 DF-SOS-MP2 correlation energy [au]:          -14.414011646187
 DF-SOS-MP2 energy [au]:                   -20990.100313446419
 DF-MP2 correlation energy [au]:              -15.432594255343
 DF-MP2 energy [au]:                       -20991.118896055577
 
 ************************ 2023-04-26 20:49:27 *************************
                      Normal termination of mrcc.
 **********************************************************************
