 vasp.6.3.0 20Jan22 (build Apr  1 2022 16:44:48) gamma-only                      
 executed on        HPECrayEX_GCC date 2022.09.24  19:07:26
 running  128 mpi-ranks, with    1 threads/rank
 distrk:  each k-point on   64 cores,    2 groups
 distr:  one band on NCORE=   4 cores,   16 groups


--------------------------------------------------------------------------------------------------------


 INCAR:
   SYSTEM = MgO-rocksalt
   ISMEAR = 0
   SIGMA = 0.05
   EDIFF = 5E-7
   ALGO = ALL
   ISTART = 0
   IBRION = 2
   NSW = 200
   EDIFFG = -0.005
   ISIF = 2
   ISYM = 2
   DIPOL = 0.5 0.5 0.5
   IDIPOL = 4
   LDIPOL = .TRUE.
   LHFCALC = .TRUE.
   GGA = B5
   AEXX = 0.2
   AGGAX = 0.72
   AGGAC = 0.81
   ALDAC = 0.19
   IVDW = 1
   VDW_S6 = 1.05
   VDW_C6 = 1.75 0.70
   VDW_R0 = 1.452 1.342
   ENCUT = 600
   PREC = Normal
   LASPH = .TRUE.
   LREAL = .FALSE.
   ISPIN = 1
   NELM = 200
   NELMIN = 8
   NCORE = 4
   KPAR = 2
   LWAVE = .FALSE.
   LCHARG = .FALSE.

 POTCAR:    PAW_PBE C 08Apr2002                   
 POTCAR:    PAW_PBE O 08Apr2002                   
 -----------------------------------------------------------------------------
|                                                                             |
|           W    W    AA    RRRRR   N    N  II  N    N   GGGG   !!!           |
|           W    W   A  A   R    R  NN   N  II  NN   N  G    G  !!!           |
|           W    W  A    A  R    R  N N  N  II  N N  N  G       !!!           |
|           W WW W  AAAAAA  RRRRR   N  N N  II  N  N N  G  GGG   !            |
|           WW  WW  A    A  R   R   N   NN  II  N   NN  G    G                |
|           W    W  A    A  R    R  N    N  II  N    N   GGGG   !!!           |
|                                                                             |
|     You have selected ISYM=2 for a HF type calculation. This will           |
|     symmetrize the charge density but not the exchange potential. I         |
|     suggest to use ISYM=3 instead. This uses symmetry to obtain the         |
|     orbitals at all k-points in the Brillouin zone, but does not apply      |
|     symmetry to the Hartree potential directly. The resultant charge        |
|     might have lower symmetry than the crystal but, at least, Hartree       |
|     and exchange are fully compatible.                                      |
|                                                                             |
 -----------------------------------------------------------------------------

 POTCAR:    PAW_PBE C 08Apr2002                   
   SHA256 =  253f7b50bb8d59471dbedb8285d89021f4a42ed1a2c5d38a03a736e69125dd95 C/POTCAR              
   COPYR  = (c) Copyright 08Apr2002 Georg Kresse                                                    
   COPYR  = This file is part of the software VASP. Any use, copying, and all other rights are regul
   COPYR  = If you do not have a valid VASP license, you may not use, copy or distribute this file. 
   VRHFIN =C: s2p2                                                                                  
   LEXCH  = PE                                                                                      
   EATOM  =   147.1560 eV,   10.8157 Ry                                                             
                                                                                                    
   TITEL  = PAW_PBE C 08Apr2002                                                                     
   LULTRA =        F    use ultrasoft PP ?                                                          
   IUNSCR =        1    unscreen: 0-lin 1-nonlin 2-no                                               
   RPACOR =    1.200    partial core radius                                                         
   POMASS =   12.011; ZVAL   =    4.000    mass and valenz                                          
   RCORE  =    1.500    outmost cutoff radius                                                       
   RWIGS  =    1.630; RWIGS  =    0.863    wigner-seitz radius (au A)                               
   ENMAX  =  400.000; ENMIN  =  300.000 eV                                                          
   ICORE  =        2    local potential                                                             
   LCOR   =        T    correct aug charges                                                         
   LPAW   =        T    paw PP                                                                      
   EAUG   =  644.873                                                                                
   DEXC   =    0.000                                                                                
   RMAX   =    1.529    core radius for proj-oper                                                   
   RAUG   =    1.300    factor for augmentation sphere                                              
   RDEP   =    1.501    radius for radial grids                                                     
   RDEPT  =    1.300    core radius for aug-charge                                                  
                                                                                                    
   Atomic configuration                                                                             
    4 entries                                                                                       
     n  l   j            E        occ.                                                              
     1  0  0.50      -273.3789   2.0000                                                             
     2  0  0.50       -13.7508   2.0000                                                             
     2  1  0.50        -5.2854   2.0000                                                             
     3  2  1.50        -5.4423   0.0000                                                             
   Description                                                                                      
     l       E           TYP  RCUT    TYP  RCUT                                                     
     0    -13.7508458     23  1.200                                                                 
     0     -8.2022199     23  1.200                                                                 
     1     -5.2854383     23  1.500                                                                 
     1     34.0145650     23  1.500                                                                 
     2     -5.4423304      7  1.500                                                                 
  local pseudopotential read in
  partial core-charges read in
  partial kinetic energy density read in
  atomic valenz-charges read in
  non local Contribution for L=           0  read in
    real space projection operators read in
  non local Contribution for L=           0  read in
    real space projection operators read in
  non local Contribution for L=           1  read in
    real space projection operators read in
  non local Contribution for L=           1  read in
    real space projection operators read in
    PAW grid and wavefunctions read in

   number of l-projection  operators is LMAX  =           4
   number of lm-projection operators is LMMAX =           8

 POTCAR:    PAW_PBE O 08Apr2002                   
   SHA256 =  818f92134a0a090dccd8ba1447fa70422a3b330e708bb4f08108d8ae51209ddf O/POTCAR              
   COPYR  = (c) Copyright 08Apr2002 Georg Kresse                                                    
   COPYR  = This file is part of the software VASP. Any use, copying, and all other rights are regul
   COPYR  = If you do not have a valid VASP license, you may not use, copy or distribute this file. 
   VRHFIN =O: s2p4                                                                                  
   LEXCH  = PE                                                                                      
   EATOM  =   432.3788 eV,   31.7789 Ry                                                             
                                                                                                    
   TITEL  = PAW_PBE O 08Apr2002                                                                     
   LULTRA =        F    use ultrasoft PP ?                                                          
   IUNSCR =        1    unscreen: 0-lin 1-nonlin 2-no                                               
   RPACOR =    1.200    partial core radius                                                         
   POMASS =   16.000; ZVAL   =    6.000    mass and valenz                                          
   RCORE  =    1.520    outmost cutoff radius                                                       
   RWIGS  =    1.550; RWIGS  =    0.820    wigner-seitz radius (au A)                               
   ENMAX  =  400.000; ENMIN  =  300.000 eV                                                          
   ICORE  =        2    local potential                                                             
   LCOR   =        T    correct aug charges                                                         
   LPAW   =        T    paw PP                                                                      
   EAUG   =  605.392                                                                                
   DEXC   =    0.000                                                                                
   RMAX   =    1.553    core radius for proj-oper                                                   
   RAUG   =    1.300    factor for augmentation sphere                                              
   RDEP   =    1.550    radius for radial grids                                                     
   RDEPT  =    1.329    core radius for aug-charge                                                  
                                                                                                    
   Atomic configuration                                                                             
    4 entries                                                                                       
     n  l   j            E        occ.                                                              
     1  0  0.50      -514.6923   2.0000                                                             
     2  0  0.50       -23.9615   2.0000                                                             
     2  1  0.50        -9.0305   4.0000                                                             
     3  2  1.50        -9.5241   0.0000                                                             
   Description                                                                                      
     l       E           TYP  RCUT    TYP  RCUT                                                     
     0    -23.9615318     23  1.200                                                                 
     0     -9.5240782     23  1.200                                                                 
     1     -9.0304911     23  1.520                                                                 
     1      8.1634956     23  1.520                                                                 
     2     -9.5240782      7  1.500                                                                 
  local pseudopotential read in
  partial core-charges read in
  partial kinetic energy density read in
  kinetic energy density of atom read in
  atomic valenz-charges read in
  non local Contribution for L=           0  read in
    real space projection operators read in
  non local Contribution for L=           0  read in
    real space projection operators read in
  non local Contribution for L=           1  read in
    real space projection operators read in
  non local Contribution for L=           1  read in
    real space projection operators read in
    PAW grid and wavefunctions read in

   number of l-projection  operators is LMAX  =           4
   number of lm-projection operators is LMMAX =           8

 -----------------------------------------------------------------------------
|                                                                             |
|               ----> ADVICE to this user running VASP <----                  |
|                                                                             |
|     You enforced a specific xc type in the INCAR file but a different       |
|     type was found in the POTCAR file.                                      |
|     I HOPE YOU KNOW WHAT YOU ARE DOING!                                     |
|                                                                             |
 -----------------------------------------------------------------------------

  PAW_PBE C 08Apr2002                   :
 energy of atom  1       EATOM= -147.1560
 kinetic energy error for atom=    0.0057 (will be added to EATOM!!)
  PAW_PBE O 08Apr2002                   :
 energy of atom  2       EATOM= -432.3788
 kinetic energy error for atom=    0.0168 (will be added to EATOM!!)


 POSCAR:  C  O
  positions in direct lattice
  velocities in cartesian coordinates
 exchange correlation table for  LEXCH =       12
   RHO(1)=    0.500       N(1)  =     2000
   RHO(2)=  100.500       N(2)  =     4000



--------------------------------------------------------------------------------------------------------


 ion  position               nearest neighbor table
   1  0.500  0.500  0.473-   2 1.14
   2  0.500  0.500  0.527-   1 1.14

  LATTYP: Found a simple tetragonal cell.
 ALAT       =    20.0000000000
 C/A-ratio  =     1.0563164144
  
  Lattice vectors:
  
 A1 = (  20.0000000000,   0.0000000000,   0.0000000000)
 A2 = (   0.0000000000,  20.0000000000,   0.0000000000)
 A3 = (   0.0000000000,   0.0000000000,  21.1263282871)


Analysis of symmetry for initial positions (statically):
=====================================================================
 Subroutine PRICEL returns:
 Original cell was already a primitive cell.
 

 Routine SETGRP: Setting up the symmetry group for a 
 simple tetragonal supercell.


 Subroutine GETGRP returns: Found  8 space group operations
 (whereof  8 operations were pure point group operations)
 out of a pool of 16 trial point group operations.


The static configuration has the point symmetry C_4v.


Analysis of symmetry for dynamics (positions and initial velocities):
=====================================================================
 Subroutine PRICEL returns:
 Original cell was already a primitive cell.
 

 Routine SETGRP: Setting up the symmetry group for a 
 simple tetragonal supercell.


 Subroutine GETGRP returns: Found  8 space group operations
 (whereof  8 operations were pure point group operations)
 out of a pool of 16 trial point group operations.


The dynamic configuration has the point symmetry C_4v.


 Subroutine INISYM returns: Found  8 space group operations
 (whereof  8 operations are pure point group operations),
 and found     1 'primitive' translations


----------------------------------------------------------------------------------------

                                     Primitive cell                                     

  volume of cell :    8450.5313

  direct lattice vectors                    reciprocal lattice vectors
    20.000000000  0.000000000  0.000000000     0.050000000  0.000000000  0.000000000
     0.000000000 20.000000000  0.000000000     0.000000000  0.050000000  0.000000000
     0.000000000  0.000000000 21.126328287     0.000000000  0.000000000  0.047334302

  length of vectors
    20.000000000 20.000000000 21.126328287     0.050000000  0.050000000  0.047334302

  position of ions in fractional coordinates (direct lattice)
     0.500000000  0.500000000  0.472993646
     0.500000000  0.500000000  0.527006354

  ion indices of the primitive-cell ions
   primitive index   ion index
                 1           1
                 2           2

----------------------------------------------------------------------------------------



 KPOINTS: pymatgen v2020.8.13 with grid density = 

Automatic generation of k-mesh.
 Grid dimensions read from file:
 generate k-points for:    1    1    1

 Generating k-lattice:

  Cartesian coordinates                     Fractional coordinates (reciprocal lattice)
     0.050000000  0.000000000  0.000000000     1.000000000  0.000000000  0.000000000
     0.000000000  0.050000000  0.000000000     0.000000000  1.000000000  0.000000000
     0.000000000  0.000000000  0.047334302     0.000000000  0.000000000  1.000000000

  Length of vectors
     0.050000000  0.050000000  0.047334302

  Shift w.r.t. Gamma in fractional coordinates (k-lattice)
     0.000000000  0.000000000  0.000000000

 
 Subroutine IBZKPT returns following result:
 ===========================================
 
 Found      1 irreducible k-points:
 
 Following reciprocal coordinates:
            Coordinates               Weight
  0.000000  0.000000  0.000000      1.000000
 
 Following cartesian coordinates:
            Coordinates               Weight
  0.000000  0.000000  0.000000      1.000000
 
 
 Subroutine IBZKPT_HF returns following result:
 ==============================================
 
 Found      1 k-points in 1st BZ
 the following      1 k-points will be used (e.g. in the exchange kernel)
 Following reciprocal coordinates:   # in IRBZ
  0.000000  0.000000  0.000000    1.00000000   1 t-inv F


--------------------------------------------------------------------------------------------------------




 Dimension of arrays:
   k-points           NKPTS =      1   k-points in BZ     NKDIM =      1   number of bands    NBANDS=     16
   number of dos      NEDOS =    301   number of ions     NIONS =      2
   non local maximal  LDIM  =      4   non local SUM 2l+1 LMDIM =      8
   total plane-waves  NPLWV = ******
   max r-space proj   IRMAX =      1   max aug-charges    IRDMAX=   3029
   dimension x,y,z NGX =   120 NGY =  120 NGZ =  128
   dimension x,y,z NGXF=   240 NGYF=  240 NGZF=  256
   support grid    NGXF=   240 NGYF=  240 NGZF=  256
   ions per type =               1   1
   NGX,Y,Z   is equivalent  to a cutoff of   9.97,  9.97, 10.07 a.u.
   NGXF,Y,Z  is equivalent  to a cutoff of  19.95, 19.95, 20.14 a.u.

 SYSTEM =  MgO-rocksalt                            
 POSCAR =   C  O                                   

 Startparameter for this run:
   NWRITE =      2    write-flag & timer
   PREC   = normal    normal or accurate (medium, high low for compatibility)
   ISTART =      0    job   : 0-new  1-cont  2-samecut
   ICHARG =      2    charge: 1-file 2-atom 10-const
   ISPIN  =      1    spin polarized calculation?
   LNONCOLLINEAR =      F non collinear calculations
   LSORBIT =      F    spin-orbit coupling
   INIWAV =      1    electr: 0-lowe 1-rand  2-diag
   LASPH  =      T    aspherical Exc in radial PAW
 Electronic Relaxation 1
   ENCUT  =  600.0 eV  44.10 Ry    6.64 a.u.  39.94 39.94 42.19*2*pi/ulx,y,z
   ENINI  =  600.0     initial cutoff
   ENAUG  =  644.9 eV  augmentation charge cutoff
   NELM   =    200;   NELMIN=  8; NELMDL= -5     # of ELM steps 
   EDIFF  = 0.5E-06   stopping-criterion for ELM
   LREAL  =      F    real-space projection
   NLSPLINE    = F    spline interpolate recip. space projectors
   LCOMPAT=      F    compatible to vasp.4.4
   GGA_COMPAT  = T    GGA compatible to vasp.4.4-vasp.4.6
   LMAXPAW     = -100 max onsite density
   LMAXMIX     =    2 max onsite mixed and CHGCAR
   VOSKOWN=      0    Vosko Wilk Nusair interpolation
   ROPT   =    0.00000   0.00000
 Ionic relaxation
   EDIFFG = -.5E-02   stopping-criterion for IOM
   NSW    =    200    number of steps for IOM
   NBLOCK =      1;   KBLOCK =    200    inner block; outer block 
   IBRION =      2    ionic relax: 0-MD 1-quasi-New 2-CG
   NFREE  =      1    steps in history (QN), initial steepest desc. (CG)
   ISIF   =      2    stress and relaxation
   IWAVPR =     11    prediction:  0-non 1-charg 2-wave 3-comb
   ISYM   =      2    0-nonsym 1-usesym 2-fastsym
   LCORR  =      T    Harris-Foulkes like correction to forces

   POTIM  = 0.5000    time-step for ionic-motion
   TEIN   =    0.0    initial temperature
   TEBEG  =    0.0;   TEEND  =   0.0 temperature during run
   SMASS  =  -3.00    Nose mass-parameter (am)
   estimated Nose-frequenzy (Omega)   =  0.10E-29 period in steps = 0.13E+47 mass=  -0.914E-26a.u.
   SCALEE = 1.0000    scale energy and forces
   NPACO  =    256;   APACO  = 10.0  distance and # of slots for P.C.
   PSTRESS=    0.0 pullay stress

  Mass of Ions in am
   POMASS =  12.01 16.00
  Ionic Valenz
   ZVAL   =   4.00  6.00
  Atomic Wigner-Seitz radii
   RWIGS  =  -1.00 -1.00
  virtual crystal weights 
   VCA    =   1.00  1.00
   NELECT =      10.0000    total number of electrons
   NUPDOWN=      -1.0000    fix difference up-down

 DOS related values:
   EMIN   =  10.00;   EMAX   =-10.00  energy-range for DOS
   EFERMI =   0.00
   ISMEAR =     0;   SIGMA  =   0.05  broadening in eV -4-tet -1-fermi 0-gaus

 Electronic relaxation 2 (details)
   IALGO  =     58    algorithm
   LDIAG  =      T    sub-space diagonalisation (order eigenvalues)
   LSUBROT=      F    optimize rotation matrix (better conditioning)
   TURBO    =      0    0=normal 1=particle mesh
   IRESTART =      0    0=no restart 2=restart with 2 vectors
   NREBOOT  =      0    no. of reboots
   NMIN     =      0    reboot dimension
   EREF     =   0.00    reference energy to select bands
   IMIX   =      4    mixing-type and parameters
     AMIX     =   0.40;   BMIX     =  1.00
     AMIX_MAG =   1.60;   BMIX_MAG =  1.00
     AMIN     =   0.10
     WC   =   100.;   INIMIX=   1;  MIXPRE=   1;  MAXMIX= -45

 Intra band minimization:
   WEIMIN = 0.0010     energy-eigenvalue tresh-hold
   EBREAK =  0.78E-08  absolut break condition
   DEPER  =   0.30     relativ break condition  

   TIME   =   0.40     timestep for ELM

  volume/ion in A,a.u.               =    4225.27     28513.50
  Fermi-wavevector in a.u.,A,eV,Ry     =   0.173160  0.327224  0.407961  0.029984
  Thomas-Fermi vector in A             =   0.887314

 Write flags
   LWAVE        =      F    write WAVECAR
   LDOWNSAMPLE  =      F    k-point downsampling of WAVECAR
   LCHARG       =      F    write CHGCAR
   LVTOT        =      F    write LOCPOT, total local potential
   LVHAR        =      F    write LOCPOT, Hartree potential only
   LELF         =      F    write electronic localiz. function (ELF)
   LORBIT       =      0    0 simple, 1 ext, 2 COOP (PROOUT), +10 PAW based schemes


 Dipole corrections
   LMONO  =      F    monopole corrections only (constant potential shift)
   LDIPOL =      T    correct potential (dipole corrections)
   IDIPOL =      4    1-x, 2-y, 3-z, 4-all directions 
   EPSILON=  1.0000000 bulk dielectric constant

 Exchange correlation treatment:
   GGA     =    B5    GGA type
   LEXCH   =    12    internal setting for exchange type
   LIBXC   =     F    Libxc                    
   VOSKOWN =     0    Vosko Wilk Nusair interpolation
   EXXOEP  =     0    0=HF, 1=EXX-LHF (local Hartree Fock) 2=EXX OEP
   LHFCALC =     T    Hartree Fock is set to
   LSYMGRAD=     F    symmetrize gradient (conserves proper symmetry)
   PRECFOCK=normal    Normal, Fast or Accurate (Low or Medium for compatibility)
   LRHFCALC=     F    long range Hartree Fock
   LRSCOR  =     F    long range correlation only (use DFT for short range part)
   LTHOMAS =     F    Thomas Fermi screening in HF
   LMODELHF=     F    short range full HF, long range fraction AEXX
   LFOCKACE=     T    use Adeptively-Compressed-Exchange operator
   ENCUT4O =  -1.0   cutoff for four orbital integrals eV
   LMAXFOCK=     4    L truncation for augmentation on plane wave grid
   LMAXFOCKAE=  -1    L truncation for all-electron charge restoration on plane wave grid
   NMAXFOCKAE=   1    number of basis functions for all-electron charge restoration
   LFOCKAEDFT=     F  apply the AE augmentation even for DFT
   NKREDX  =     1    reduce k-point grid by
   NKREDY  =     1    reduce k-point grid by
   NKREDZ  =     1    reduce k-point grid by
   SHIFTRED=     F    shift reduced grid of Gamma
   HFKIDENT=     F    idential grid for each k-point
   ODDONLY =     F    use only odd q-grid points
   EVENONLY=     F    use only even q-grid points
   HFALPHA =   -1.0000 decay constant for conv. correction
   MCALPHA =    0.0000 extent of test-charge in conv. correction in multipole expansion
   AEXX    =    0.2000 exact exchange contribution
   HFSCREEN=    0.0000 screening length (either q_TF or 0.3 A-1)
   HFSCREENC=   0.0000 screening length for correlation (either q_TF or 0.3 A-1)
   HFRCUT  =    0.0000 spherical cutoff for potential kernel
   ALDAX   =    0.8000 LDA exchange part
   AGGAX   =    0.7200 GGA exchange part
   ALDAC   =    0.1900 LDA correlation
   AGGAC   =    0.8100 GGA correlation
   ENCUTFOCK=  -1.0 apply spherical cutoff to Coloumb kernel
   NBANDSGWLOW=     1    first orbital included in HF term
   NBLOCK_FOCK=    64    blocking factor in FOCK_ACC

 Linear response parameters
   LEPSILON=     F    determine dielectric tensor
   LRPA    =     F    only Hartree local field effects (RPA)
   LNABLA  =     F    use nabla operator in PAW spheres
   LVEL    =     F    velocity operator in full k-point grid
   CSHIFT  =0.1000    complex shift for real part using Kramers Kronig
   OMEGAMAX=  -1.0    maximum frequency
   DEG_THRESHOLD= 0.2000000E-02 threshold for treating states as degnerate
   RTIME   =   -0.100 relaxation time in fs
  (WPLASMAI=    0.000 imaginary part of plasma frequency in eV, 0.658/RTIME)
   DFIELD  = 0.0000000 0.0000000 0.0000000 field for delta impulse in time

  Optional k-point grid parameters
   LKPOINTS_OPT  =     F    use optional k-point grid
   KPOINTS_OPT_MODE=     1    mode for optional k-point grid

 Orbital magnetization related:
   ORBITALMAG=     F  switch on orbital magnetization
   LCHIMAG   =     F  perturbation theory with respect to B field
   DQ        =  0.001000  dq finite difference perturbation B field
   LLRAUG    =     F  two centre corrections for induced B field



--------------------------------------------------------------------------------------------------------


 conjugate gradient relaxation of ions
 charge density and potential will be updated during run
 non-spin polarized calculation
 Conjugate gradient for all bands (Freysoldt, et al. PRB 79, 241103 (2009))
 preconditioned conjugated gradient                                        
 perform sub-space diagonalisation
    before iterative eigenvector-optimisation
 modified Broyden-mixing scheme, WC =      100.0
 initial mixing is a Kerker type mixing with AMIX =  0.4000 and BMIX =      1.0000
 Hartree-type preconditioning will be used
 using additional bands           11
 reciprocal scheme for non local part
 use partial core corrections
 no Harris-corrections to forces 
 use gradient corrections 
 use of overlap-Matrix (Vanderbilt PP)
 Gauss-broadening in eV      SIGMA  =   0.05


--------------------------------------------------------------------------------------------------------


  energy-cutoff  :      600.00
  volume of cell :     8450.53
      direct lattice vectors                 reciprocal lattice vectors
    20.000000000  0.000000000  0.000000000     0.050000000  0.000000000  0.000000000
     0.000000000 20.000000000  0.000000000     0.000000000  0.050000000  0.000000000
     0.000000000  0.000000000 21.126328287     0.000000000  0.000000000  0.047334302

  length of vectors
    20.000000000 20.000000000 21.126328287     0.050000000  0.050000000  0.047334302



 k-points in units of 2pi/SCALE and weight: pymatgen v2020.8.13 with grid density = 
   0.00000000  0.00000000  0.00000000       1.000

 k-points in reciprocal lattice and weights: pymatgen v2020.8.13 with grid density = 
   0.00000000  0.00000000  0.00000000       1.000

 position of ions in fractional coordinates (direct lattice) 
   0.50000000  0.50000000  0.47299365
   0.50000000  0.50000000  0.52700635

 position of ions in cartesian coordinates  (Angst):
  10.00000000 10.00000000  9.99261905
  10.00000000 10.00000000 11.13370924



--------------------------------------------------------------------------------------------------------


 use parallel FFT for orbitals z direction half grid
 k-point   1 :   0.0000 0.0000 0.0000  plane waves:  140949

 maximum and minimum number of plane-waves per node :     35244    35233

 maximum number of plane-waves:    140949
 maximum index in each direction: 
   IXMAX=   39   IYMAX=   39   IZMAX=   42
   IXMIN=  -39   IYMIN=  -39   IZMIN=    0


 parallel 3D FFT for wavefunctions:
    minimum data exchange during FFTs selected (reduces bandwidth)
 parallel 3D FFT for charge:
    minimum data exchange during FFTs selected (reduces bandwidth)


 Radii for the augmentation spheres in the non-local exchange
 for species   1 augmentation radius   0.874 (default was   0.699)
       energy cutoff for augmentation   2400.0
 for species   2 augmentation radius   0.902 (default was   0.722)
       energy cutoff for augmentation   2400.0

 real space projection operators:
  total allocation   :         90.07 KBytes
  max/ min on nodes  :         23.98         21.94

 Maximum index for augmentation-charges in exchange          179
  SETUP_FOCK is finished

 total amount of memory used by VASP MPI-rank0    95295. kBytes
=======================================================================

   base      :      30000. kBytes
   nonl-proj :       5639. kBytes
   fftplans  :      25602. kBytes
   grid      :      32328. kBytes
   one-center:          1. kBytes
   HF        :          4. kBytes
   nonlr-proj:         29. kBytes
   wavefun   :       1692. kBytes

     INWAV:  cpu time      0.0000: real time      0.0000
 Broyden mixing: mesh for mixing (old mesh)
   NGX = 79   NGY = 79   NGZ = 85
  (NGX  =240   NGY  =240   NGZ  =256)
  gives a total of 530485 points

 initial charge density was supplied:
 charge density of overlapping atoms calculated
 number of electron      10.0000000 magnetization 
 keeping initial charge density in first step


--------------------------------------------------------------------------------------------------------


 Maximum index for augmentation-charges           37 (set IRDMAX)


--------------------------------------------------------------------------------------------------------


    FEWALD:  cpu time      0.0019: real time      0.0019


--------------------------------------- Iteration      1(   1)  ---------------------------------------


    POTLOK:  cpu time      0.1644: real time      0.1645
    SETDIJ:  cpu time      0.0430: real time      0.0431
    TRIAL :  cpu time      0.1489: real time      0.1497
    CORREC:  cpu time      0.0004: real time      0.0004
    --------------------------------------------
      LOOP:  cpu time      0.3574: real time      0.3683

 eigenvalue-minimisations  :    48
 total energy-change (2. order) : 0.5530460E+02  (-0.1823163E+03)
 number of electron      10.0000000 magnetization 
 augmentation part       10.0000000 magnetization 

 DIPCOR: dipole corrections for dipol
 direction  1 min pos     1, direction  2 min pos     1, direction  3 min pos     1,
 dipolmoment          -0.000000     -0.000000      0.000002 electrons x Angstroem
 Tr[quadrupol]         5.891486

 energy correction for charged system         0.000000 eV
 dipol+quadrupol energy correction           -0.000000 eV
 added-field ion interaction         -0.000000 eV  (added to PSCEN)


 Free energy of the ion-electron system (eV)
  ---------------------------------------------------
  alpha Z        PSCENC =         0.05170769
  Ewald energy   TEWEN  =       202.76714932
  -Hartree energ DENC   =      -662.13418677
  -exchange      EXHF   =         0.00000000
  -V(xc)+E(xc)   XCENC  =        39.20993629
  PAW double counting   =       455.07152327     -500.63835054
  entropy T*S    EENTRO =        -0.04219855
  eigenvalues    EBANDS =       -55.12602715
  atomic energy  EATOM  =       576.14504219
  ---------------------------------------------------
  free energy    TOTEN  =        55.30459574 eV

  energy without entropy =       55.34679429  energy(sigma->0) =       55.32569501
  exchange ACFDT corr.  =         0.00000000  see jH, gK, PRB 81, 115126


--------------------------------------------------------------------------------------------------------




--------------------------------------- Iteration      1(   2)  ---------------------------------------


    TRIAL :  cpu time      0.1736: real time      0.1739
    CORREC:  cpu time      0.0001: real time      0.0001
    --------------------------------------------
      LOOP:  cpu time      0.1781: real time      0.1860

 eigenvalue-minimisations  :    64
 total energy-change (2. order) :-0.9001523E+02  (-0.8661065E+02)
 number of electron      10.0000000 magnetization 
 augmentation part       10.0000000 magnetization 

 DIPCOR: dipole corrections for dipol
 direction  1 min pos     1, direction  2 min pos     1, direction  3 min pos     1,
 dipolmoment          -0.000000     -0.000000      0.000002 electrons x Angstroem
 Tr[quadrupol]         5.891486

 energy correction for charged system         0.000000 eV
 dipol+quadrupol energy correction           -0.000000 eV
 added-field ion interaction         -0.000000 eV  (added to PSCEN)


 Free energy of the ion-electron system (eV)
  ---------------------------------------------------
  alpha Z        PSCENC =         0.05170769
  Ewald energy   TEWEN  =       202.76714932
  -Hartree energ DENC   =      -662.13418677
  -exchange      EXHF   =         0.00000000
  -V(xc)+E(xc)   XCENC  =        39.20993629
  PAW double counting   =       455.07152327     -500.63835054
  entropy T*S    EENTRO =        -0.00000000
  eigenvalues    EBANDS =      -145.18346032
  atomic energy  EATOM  =       576.14504219
  ---------------------------------------------------
  free energy    TOTEN  =       -34.71063888 eV

  energy without entropy =      -34.71063888  energy(sigma->0) =      -34.71063888
  exchange ACFDT corr.  =         0.00000000  see jH, gK, PRB 81, 115126


--------------------------------------------------------------------------------------------------------




--------------------------------------- Iteration      1(   3)  ---------------------------------------


    TRIAL :  cpu time      0.0985: real time      0.0985
    CORREC:  cpu time      0.0001: real time      0.0001
    --------------------------------------------
      LOOP:  cpu time      0.1028: real time      0.1108

 eigenvalue-minimisations  :    32
 total energy-change (2. order) :-0.2868477E+02  (-0.2868477E+02)
 number of electron      10.0000000 magnetization 
 augmentation part       10.0000000 magnetization 

 DIPCOR: dipole corrections for dipol
 direction  1 min pos     1, direction  2 min pos     1, direction  3 min pos     1,
 dipolmoment          -0.000000     -0.000000      0.000002 electrons x Angstroem
 Tr[quadrupol]         5.891486

 energy correction for charged system         0.000000 eV
 dipol+quadrupol energy correction           -0.000000 eV
 added-field ion interaction         -0.000000 eV  (added to PSCEN)


 Free energy of the ion-electron system (eV)
  ---------------------------------------------------
  alpha Z        PSCENC =         0.05170769
  Ewald energy   TEWEN  =       202.76714932
  -Hartree energ DENC   =      -662.13418677
  -exchange      EXHF   =         0.00000000
  -V(xc)+E(xc)   XCENC  =        39.20993629
  PAW double counting   =       455.07152327     -500.63835054
  entropy T*S    EENTRO =        -0.00000000
  eigenvalues    EBANDS =      -173.86823182
  atomic energy  EATOM  =       576.14504219
  ---------------------------------------------------
  free energy    TOTEN  =       -63.39541038 eV

  energy without entropy =      -63.39541038  energy(sigma->0) =      -63.39541038
  exchange ACFDT corr.  =         0.00000000  see jH, gK, PRB 81, 115126


--------------------------------------------------------------------------------------------------------




--------------------------------------- Iteration      1(   4)  ---------------------------------------


    TRIAL :  cpu time      0.1322: real time      0.1322
    CORREC:  cpu time      0.0001: real time      0.0001
    --------------------------------------------
      LOOP:  cpu time      0.1370: real time      0.1440

 eigenvalue-minimisations  :    48
 total energy-change (2. order) :-0.1524486E+01  (-0.1524486E+01)
 number of electron      10.0000000 magnetization 
 augmentation part       10.0000000 magnetization 

 DIPCOR: dipole corrections for dipol
 direction  1 min pos     1, direction  2 min pos     1, direction  3 min pos     1,
 dipolmoment          -0.000000     -0.000000      0.000002 electrons x Angstroem
 Tr[quadrupol]         5.891486

 energy correction for charged system         0.000000 eV
 dipol+quadrupol energy correction           -0.000000 eV
 added-field ion interaction         -0.000000 eV  (added to PSCEN)


 Free energy of the ion-electron system (eV)
  ---------------------------------------------------
  alpha Z        PSCENC =         0.05170769
  Ewald energy   TEWEN  =       202.76714932
  -Hartree energ DENC   =      -662.13418677
  -exchange      EXHF   =         0.00000000
  -V(xc)+E(xc)   XCENC  =        39.20993629
  PAW double counting   =       455.07152327     -500.63835054
  entropy T*S    EENTRO =        -0.00000000
  eigenvalues    EBANDS =      -175.39271801
  atomic energy  EATOM  =       576.14504219
  ---------------------------------------------------
  free energy    TOTEN  =       -64.91989657 eV

  energy without entropy =      -64.91989657  energy(sigma->0) =      -64.91989657
  exchange ACFDT corr.  =         0.00000000  see jH, gK, PRB 81, 115126


--------------------------------------------------------------------------------------------------------




--------------------------------------- Iteration      1(   5)  ---------------------------------------


    POTLOK:  cpu time      0.1572: real time      0.1576
    SETDIJ:  cpu time      0.1660: real time      0.1660
    TRIAL :  cpu time      1.6626: real time      1.6631
    CORREC:  cpu time      0.0001: real time      0.0001
    CHARGE:  cpu time      0.2818: real time      0.2824
    --------------------------------------------
      LOOP:  cpu time      2.2789: real time      2.2807

 eigenvalue-minimisations  :    32
 total energy-change (2. order) : 0.4578193E+02  (-0.6011084E-01)
 number of electron       9.9999983 magnetization 
 augmentation part        0.7478816 magnetization 

 DIPCOR: dipole corrections for dipol
 direction  1 min pos     1, direction  2 min pos     1, direction  3 min pos     1,
 dipolmoment          -0.000000     -0.000000      0.000002 electrons x Angstroem
 Tr[quadrupol]         5.891486

 energy correction for charged system         0.000000 eV
 dipol+quadrupol energy correction           -0.000000 eV
 added-field ion interaction         -0.000000 eV  (added to PSCEN)


 Free energy of the ion-electron system (eV)
  ---------------------------------------------------
  alpha Z        PSCENC =         0.05170769
  Ewald energy   TEWEN  =       202.76714932
  -Hartree energ DENC   =      -662.13418677
  -exchange      EXHF   =        25.92111353
  -V(xc)+E(xc)   XCENC  =        31.30530068
  PAW double counting   =       462.37958447     -464.81341021
  entropy T*S    EENTRO =        -0.00000000
  eigenvalues    EBANDS =      -190.76026562
  atomic energy  EATOM  =       576.14504219
  ---------------------------------------------------
  free energy    TOTEN  =       -19.13796472 eV

  energy without entropy =      -19.13796472  energy(sigma->0) =      -19.13796472
  exchange ACFDT corr.  =        -0.00000000  see jH, gK, PRB 81, 115126


--------------------------------------------------------------------------------------------------------




--------------------------------------- Iteration      1(   6)  ---------------------------------------


    POTLOK:  cpu time      0.1584: real time      0.1584
    SETDIJ:  cpu time      0.1720: real time      0.1720
    TRIAL :  cpu time      1.5840: real time      1.7714
    CORREC:  cpu time      2.0331: real time      2.0334
    CHARGE:  cpu time      0.2158: real time      0.2160
    --------------------------------------------
      LOOP:  cpu time      4.1746: real time      4.3630

 eigenvalue-minimisations  :     0
 total energy-change (2. order) : 0.2557698E+01  (-0.1182691E+01)
 number of electron       9.9999985 magnetization 
 augmentation part        0.6884424 magnetization 

 DIPCOR: dipole corrections for dipol
 direction  1 min pos     1, direction  2 min pos     1, direction  3 min pos     1,
 dipolmoment          -0.000000     -0.000000      0.137955 electrons x Angstroem
 Tr[quadrupol]         5.718008

 energy correction for charged system         0.000000 eV
 dipol+quadrupol energy correction           -0.000057 eV
 added-field ion interaction         -0.000940 eV  (added to PSCEN)


 Free energy of the ion-electron system (eV)
  ---------------------------------------------------
  alpha Z        PSCENC =         0.05005143
  Ewald energy   TEWEN  =       202.76714932
  -Hartree energ DENC   =      -715.50673624
  -exchange      EXHF   =        26.02135511
  -V(xc)+E(xc)   XCENC  =        33.68631702
  PAW double counting   =       859.43895469     -862.36406461
  entropy T*S    EENTRO =        -0.00000000
  eigenvalues    EBANDS =      -136.81833536
  atomic energy  EATOM  =       576.14504219
  ---------------------------------------------------
  free energy    TOTEN  =       -16.58026646 eV

  energy without entropy =      -16.58026646  energy(sigma->0) =      -16.58026646
  exchange ACFDT corr.  =        -0.00000000  see jH, gK, PRB 81, 115126


--------------------------------------------------------------------------------------------------------




--------------------------------------- Iteration      1(   7)  ---------------------------------------


    POTLOK:  cpu time      0.1594: real time      0.1594
    SETDIJ:  cpu time      0.1708: real time      0.1708
    TRIAL :  cpu time      1.5142: real time      1.5143
    CORREC:  cpu time      2.0295: real time      2.0297
    CHARGE:  cpu time      0.2153: real time      0.2155
    --------------------------------------------
      LOOP:  cpu time      4.0946: real time      4.1028

 eigenvalue-minimisations  :     0
 total energy-change (2. order) :-0.1198780E+01  (-0.1758132E+00)
 number of electron       9.9999985 magnetization 
 augmentation part        0.6641998 magnetization 

 DIPCOR: dipole corrections for dipol
 direction  1 min pos     1, direction  2 min pos     1, direction  3 min pos     1,
 dipolmoment          -0.000000     -0.000000      0.103681 electrons x Angstroem
 Tr[quadrupol]         5.337952

 energy correction for charged system         0.000000 eV
 dipol+quadrupol energy correction           -0.000032 eV
 added-field ion interaction         -0.000706 eV  (added to PSCEN)


 Free energy of the ion-electron system (eV)
  ---------------------------------------------------
  alpha Z        PSCENC =         0.05049072
  Ewald energy   TEWEN  =       202.76714932
  -Hartree energ DENC   =      -687.29118740
  -exchange      EXHF   =        25.03545281
  -V(xc)+E(xc)   XCENC  =        32.44746468
  PAW double counting   =       833.10272414     -835.81711679
  entropy T*S    EENTRO =        -0.00000000
  eigenvalues    EBANDS =      -164.21906652
  atomic energy  EATOM  =       576.14504219
  ---------------------------------------------------
  free energy    TOTEN  =       -17.77904687 eV

  energy without entropy =      -17.77904687  energy(sigma->0) =      -17.77904687
  exchange ACFDT corr.  =         0.00000000  see jH, gK, PRB 81, 115126


--------------------------------------------------------------------------------------------------------




--------------------------------------- Iteration      1(   8)  ---------------------------------------


    POTLOK:  cpu time      0.1572: real time      0.1573
    SETDIJ:  cpu time      0.1719: real time      0.1719
    TRIAL :  cpu time      1.5157: real time      1.5158
    CORREC:  cpu time      2.0317: real time      2.0321
    CHARGE:  cpu time      0.2149: real time      0.2150
    --------------------------------------------
      LOOP:  cpu time      4.1031: real time      4.1042

 eigenvalue-minimisations  :     0
 total energy-change (2. order) :-0.1759201E+00  (-0.7460862E-01)
 number of electron       9.9999985 magnetization 
 augmentation part        0.6586989 magnetization 

 DIPCOR: dipole corrections for dipol
 direction  1 min pos     1, direction  2 min pos     1, direction  3 min pos     1,
 dipolmoment          -0.000000     -0.000000      0.032939 electrons x Angstroem
 Tr[quadrupol]         5.302387

 energy correction for charged system         0.000000 eV
 dipol+quadrupol energy correction           -0.000003 eV
 added-field ion interaction         -0.000224 eV  (added to PSCEN)


 Free energy of the ion-electron system (eV)
  ---------------------------------------------------
  alpha Z        PSCENC =         0.05107373
  Ewald energy   TEWEN  =       202.76714932
  -Hartree energ DENC   =      -684.88029621
  -exchange      EXHF   =        24.95143571
  -V(xc)+E(xc)   XCENC  =        32.33160656
  PAW double counting   =       837.06499001     -839.63324923
  entropy T*S    EENTRO =        -0.00000000
  eigenvalues    EBANDS =      -166.75271906
  atomic energy  EATOM  =       576.14504219
  ---------------------------------------------------
  free energy    TOTEN  =       -17.95496699 eV

  energy without entropy =      -17.95496699  energy(sigma->0) =      -17.95496699
  exchange ACFDT corr.  =        -0.00000000  see jH, gK, PRB 81, 115126


--------------------------------------------------------------------------------------------------------




--------------------------------------- Iteration      1(   9)  ---------------------------------------


    POTLOK:  cpu time      0.1587: real time      0.1587
    SETDIJ:  cpu time      0.1722: real time      0.1722
    TRIAL :  cpu time      1.5206: real time      1.5208
    CORREC:  cpu time      2.0290: real time      2.0293
    CHARGE:  cpu time      0.2152: real time      0.2153
    --------------------------------------------
      LOOP:  cpu time      4.0994: real time      4.1089

 eigenvalue-minimisations  :     0
 total energy-change (2. order) :-0.7458692E-01  (-0.2336799E-01)
 number of electron       9.9999985 magnetization 
 augmentation part        0.6593326 magnetization 

 DIPCOR: dipole corrections for dipol
 direction  1 min pos     1, direction  2 min pos     1, direction  3 min pos     1,
 dipolmoment           0.000000     -0.000000      0.007000 electrons x Angstroem
 Tr[quadrupol]         5.306913

 energy correction for charged system         0.000000 eV
 dipol+quadrupol energy correction           -0.000000 eV
 added-field ion interaction         -0.000048 eV  (added to PSCEN)


 Free energy of the ion-electron system (eV)
  ---------------------------------------------------
  alpha Z        PSCENC =         0.05152199
  Ewald energy   TEWEN  =       202.76714932
  -Hartree energ DENC   =      -684.54470575
  -exchange      EXHF   =        24.93101733
  -V(xc)+E(xc)   XCENC  =        32.31757868
  PAW double counting   =       840.82593581     -843.35314875
  entropy T*S    EENTRO =        -0.00000000
  eigenvalues    EBANDS =      -167.16994472
  atomic energy  EATOM  =       576.14504219
  ---------------------------------------------------
  free energy    TOTEN  =       -18.02955391 eV

  energy without entropy =      -18.02955391  energy(sigma->0) =      -18.02955391
  exchange ACFDT corr.  =         0.00000000  see jH, gK, PRB 81, 115126


--------------------------------------------------------------------------------------------------------




--------------------------------------- Iteration      1(  10)  ---------------------------------------


    POTLOK:  cpu time      0.1617: real time      0.1617
    SETDIJ:  cpu time      0.1678: real time      0.1678
    TRIAL :  cpu time      1.5102: real time      1.5103
    CORREC:  cpu time      2.0291: real time      2.0293
    CHARGE:  cpu time      0.2145: real time      0.2147
    --------------------------------------------
      LOOP:  cpu time      4.0949: real time      4.0958

 eigenvalue-minimisations  :     0
 total energy-change (2. order) :-0.2337183E-01  (-0.8670705E-02)
 number of electron       9.9999985 magnetization 
 augmentation part        0.6592048 magnetization 

 DIPCOR: dipole corrections for dipol
 direction  1 min pos     1, direction  2 min pos     1, direction  3 min pos     1,
 dipolmoment          -0.000000     -0.000000     -0.004393 electrons x Angstroem
 Tr[quadrupol]         5.330550

 energy correction for charged system         0.000000 eV
 dipol+quadrupol energy correction           -0.000000 eV
 added-field ion interaction          0.000030 eV  (added to PSCEN)


 Free energy of the ion-electron system (eV)
  ---------------------------------------------------
  alpha Z        PSCENC =         0.05169374
  Ewald energy   TEWEN  =       202.76714932
  -Hartree energ DENC   =      -684.36429670
  -exchange      EXHF   =        24.91960024
  -V(xc)+E(xc)   XCENC  =        32.31798058
  PAW double counting   =       841.33499331     -843.86206514
  entropy T*S    EENTRO =        -0.00000000
  eigenvalues    EBANDS =      -167.36302327
  atomic energy  EATOM  =       576.14504219
  ---------------------------------------------------
  free energy    TOTEN  =       -18.05292574 eV

  energy without entropy =      -18.05292574  energy(sigma->0) =      -18.05292574
  exchange ACFDT corr.  =        -0.00000000  see jH, gK, PRB 81, 115126


--------------------------------------------------------------------------------------------------------




--------------------------------------- Iteration      1(  11)  ---------------------------------------


    POTLOK:  cpu time      0.1590: real time      0.1590
    SETDIJ:  cpu time      0.1712: real time      0.1712
    TRIAL :  cpu time      1.5154: real time      1.5155
    CORREC:  cpu time      2.0223: real time      2.0225
    CHARGE:  cpu time      0.2150: real time      0.2151
    --------------------------------------------
      LOOP:  cpu time      4.0872: real time      4.0958

 eigenvalue-minimisations  :     0
 total energy-change (2. order) :-0.8653159E-02  (-0.3060974E-02)
 number of electron       9.9999985 magnetization 
 augmentation part        0.6595032 magnetization 

 DIPCOR: dipole corrections for dipol
 direction  1 min pos     1, direction  2 min pos     1, direction  3 min pos     1,
 dipolmoment          -0.000000     -0.000000     -0.006923 electrons x Angstroem
 Tr[quadrupol]         5.341153

 energy correction for charged system         0.000000 eV
 dipol+quadrupol energy correction           -0.000000 eV
 added-field ion interaction          0.000047 eV  (added to PSCEN)


 Free energy of the ion-electron system (eV)
  ---------------------------------------------------
  alpha Z        PSCENC =         0.05174824
  Ewald energy   TEWEN  =       202.76714932
  -Hartree energ DENC   =      -683.94321643
  -exchange      EXHF   =        24.90266060
  -V(xc)+E(xc)   XCENC  =        32.30739642
  PAW double counting   =       840.30315688     -842.83103833
  entropy T*S    EENTRO =        -0.00000000
  eigenvalues    EBANDS =      -167.76447779
  atomic energy  EATOM  =       576.14504219
  ---------------------------------------------------
  free energy    TOTEN  =       -18.06157890 eV

  energy without entropy =      -18.06157890  energy(sigma->0) =      -18.06157890
  exchange ACFDT corr.  =        -0.00000000  see jH, gK, PRB 81, 115126


--------------------------------------------------------------------------------------------------------




--------------------------------------- Iteration      1(  12)  ---------------------------------------


    POTLOK:  cpu time      0.1593: real time      0.1593
    SETDIJ:  cpu time      0.1720: real time      0.1720
    TRIAL :  cpu time      1.5144: real time      1.5145
    CORREC:  cpu time      2.0282: real time      2.0284
    CHARGE:  cpu time      0.2171: real time      0.2171
    --------------------------------------------
      LOOP:  cpu time      4.1028: real time      4.1036

 eigenvalue-minimisations  :     0
 total energy-change (2. order) :-0.3044393E-02  (-0.1236485E-02)
 number of electron       9.9999985 magnetization 
 augmentation part        0.6597611 magnetization 

 DIPCOR: dipole corrections for dipol
 direction  1 min pos     1, direction  2 min pos     1, direction  3 min pos     1,
 dipolmoment          -0.000000     -0.000000     -0.006463 electrons x Angstroem
 Tr[quadrupol]         5.345559

 energy correction for charged system         0.000000 eV
 dipol+quadrupol energy correction           -0.000000 eV
 added-field ion interaction          0.000044 eV  (added to PSCEN)


 Free energy of the ion-electron system (eV)
  ---------------------------------------------------
  alpha Z        PSCENC =         0.05175755
  Ewald energy   TEWEN  =       202.76714932
  -Hartree energ DENC   =      -683.86227104
  -exchange      EXHF   =        24.89682780
  -V(xc)+E(xc)   XCENC  =        32.30541342
  PAW double counting   =       839.59881533     -842.13059339
  entropy T*S    EENTRO =        -0.00000000
  eigenvalues    EBANDS =      -167.83676445
  atomic energy  EATOM  =       576.14504219
  ---------------------------------------------------
  free energy    TOTEN  =       -18.06462329 eV

  energy without entropy =      -18.06462329  energy(sigma->0) =      -18.06462329
  exchange ACFDT corr.  =        -0.00000000  see jH, gK, PRB 81, 115126


--------------------------------------------------------------------------------------------------------




--------------------------------------- Iteration      1(  13)  ---------------------------------------


    POTLOK:  cpu time      0.1590: real time      0.1590
    SETDIJ:  cpu time      0.1721: real time      0.1721
    TRIAL :  cpu time      1.5119: real time      1.5121
    CORREC:  cpu time      2.0411: real time      2.0414
    CHARGE:  cpu time      0.2165: real time      0.2166
    --------------------------------------------
      LOOP:  cpu time      4.1132: real time      4.1142

 eigenvalue-minimisations  :     0
 total energy-change (2. order) :-0.1229253E-02  (-0.4460939E-03)
 number of electron       9.9999985 magnetization 
 augmentation part        0.6597058 magnetization 

 DIPCOR: dipole corrections for dipol
 direction  1 min pos     1, direction  2 min pos     1, direction  3 min pos     1,
 dipolmoment          -0.000000     -0.000000     -0.005064 electrons x Angstroem
 Tr[quadrupol]         5.348372

 energy correction for charged system         0.000000 eV
 dipol+quadrupol energy correction           -0.000000 eV
 added-field ion interaction          0.000034 eV  (added to PSCEN)


 Free energy of the ion-electron system (eV)
  ---------------------------------------------------
  alpha Z        PSCENC =         0.05174862
  Ewald energy   TEWEN  =       202.76714932
  -Hartree energ DENC   =      -683.80155414
  -exchange      EXHF   =        24.89203039
  -V(xc)+E(xc)   XCENC  =        32.30130814
  PAW double counting   =       839.23891866     -841.77400712
  entropy T*S    EENTRO =        -0.00000000
  eigenvalues    EBANDS =      -167.88648859
  atomic energy  EATOM  =       576.14504219
  ---------------------------------------------------
  free energy    TOTEN  =       -18.06585255 eV

  energy without entropy =      -18.06585255  energy(sigma->0) =      -18.06585255
  exchange ACFDT corr.  =         0.00000000  see jH, gK, PRB 81, 115126


--------------------------------------------------------------------------------------------------------




--------------------------------------- Iteration      1(  14)  ---------------------------------------


    POTLOK:  cpu time      0.1572: real time      0.1572
    SETDIJ:  cpu time      0.1730: real time      0.1730
    TRIAL :  cpu time      1.5153: real time      1.5154
    CORREC:  cpu time      2.0334: real time      2.0336
    CHARGE:  cpu time      0.2154: real time      0.2156
    --------------------------------------------
      LOOP:  cpu time      4.1054: real time      4.1061

 eigenvalue-minimisations  :     0
 total energy-change (2. order) :-0.4381871E-03  (-0.1580573E-03)
 number of electron       9.9999985 magnetization 
 augmentation part        0.6596073 magnetization 

 DIPCOR: dipole corrections for dipol
 direction  1 min pos     1, direction  2 min pos     1, direction  3 min pos     1,
 dipolmoment          -0.000000     -0.000000     -0.004182 electrons x Angstroem
 Tr[quadrupol]         5.349497

 energy correction for charged system         0.000000 eV
 dipol+quadrupol energy correction           -0.000000 eV
 added-field ion interaction          0.000028 eV  (added to PSCEN)


 Free energy of the ion-electron system (eV)
  ---------------------------------------------------
  alpha Z        PSCENC =         0.05173937
  Ewald energy   TEWEN  =       202.76714932
  -Hartree energ DENC   =      -683.74704979
  -exchange      EXHF   =        24.88923388
  -V(xc)+E(xc)   XCENC  =        32.29816115
  PAW double counting   =       839.18674392     -841.72235735
  entropy T*S    EENTRO =        -0.00000000
  eigenvalues    EBANDS =      -167.93495342
  atomic energy  EATOM  =       576.14504219
  ---------------------------------------------------
  free energy    TOTEN  =       -18.06629073 eV

  energy without entropy =      -18.06629073  energy(sigma->0) =      -18.06629073
  exchange ACFDT corr.  =        -0.00000000  see jH, gK, PRB 81, 115126


--------------------------------------------------------------------------------------------------------




--------------------------------------- Iteration      1(  15)  ---------------------------------------


    POTLOK:  cpu time      0.1577: real time      0.1577
    SETDIJ:  cpu time      0.1734: real time      0.1735
    TRIAL :  cpu time      1.5192: real time      1.5193
    CORREC:  cpu time      2.0395: real time      2.0397
    CHARGE:  cpu time      0.2141: real time      0.2143
    --------------------------------------------
      LOOP:  cpu time      4.1072: real time      4.1161

 eigenvalue-minimisations  :     0
 total energy-change (2. order) :-0.1492418E-03  (-0.3657455E-04)
 number of electron       9.9999985 magnetization 
 augmentation part        0.6595060 magnetization 

 DIPCOR: dipole corrections for dipol
 direction  1 min pos     1, direction  2 min pos     1, direction  3 min pos     1,
 dipolmoment           0.000000     -0.000000     -0.003609 electrons x Angstroem
 Tr[quadrupol]         5.350169

 energy correction for charged system         0.000000 eV
 dipol+quadrupol energy correction           -0.000000 eV
 added-field ion interaction          0.000025 eV  (added to PSCEN)


 Free energy of the ion-electron system (eV)
  ---------------------------------------------------
  alpha Z        PSCENC =         0.05173399
  Ewald energy   TEWEN  =       202.76714932
  -Hartree energ DENC   =      -683.77325822
  -exchange      EXHF   =        24.89013640
  -V(xc)+E(xc)   XCENC  =        32.29885823
  PAW double counting   =       839.35157212     -841.88653466
  entropy T*S    EENTRO =        -0.00000000
  eigenvalues    EBANDS =      -167.91113933
  atomic energy  EATOM  =       576.14504219
  ---------------------------------------------------
  free energy    TOTEN  =       -18.06643997 eV

  energy without entropy =      -18.06643997  energy(sigma->0) =      -18.06643997
  exchange ACFDT corr.  =        -0.00000000  see jH, gK, PRB 81, 115126


--------------------------------------------------------------------------------------------------------




--------------------------------------- Iteration      1(  16)  ---------------------------------------


    POTLOK:  cpu time      0.1581: real time      0.1581
    SETDIJ:  cpu time      0.1710: real time      0.1710
    TRIAL :  cpu time      1.5291: real time      1.5292
    CORREC:  cpu time      2.0389: real time      2.0392
    CHARGE:  cpu time      0.2147: real time      0.2148
    --------------------------------------------
      LOOP:  cpu time      4.1238: real time      4.1247

 eigenvalue-minimisations  :     0
 total energy-change (2. order) :-0.3666158E-04  (-0.1122599E-04)
 number of electron       9.9999985 magnetization 
 augmentation part        0.6594693 magnetization 

 DIPCOR: dipole corrections for dipol
 direction  1 min pos     1, direction  2 min pos     1, direction  3 min pos     1,
 dipolmoment          -0.000000     -0.000000     -0.003608 electrons x Angstroem
 Tr[quadrupol]         5.350506

 energy correction for charged system         0.000000 eV
 dipol+quadrupol energy correction           -0.000000 eV
 added-field ion interaction          0.000025 eV  (added to PSCEN)


 Free energy of the ion-electron system (eV)
  ---------------------------------------------------
  alpha Z        PSCENC =         0.05173229
  Ewald energy   TEWEN  =       202.76714932
  -Hartree energ DENC   =      -683.76014606
  -exchange      EXHF   =        24.88974950
  -V(xc)+E(xc)   XCENC  =        32.29839530
  PAW double counting   =       839.42788136     -841.96230723
  entropy T*S    EENTRO =        -0.00000000
  eigenvalues    EBANDS =      -167.92397329
  atomic energy  EATOM  =       576.14504219
  ---------------------------------------------------
  free energy    TOTEN  =       -18.06647664 eV

  energy without entropy =      -18.06647664  energy(sigma->0) =      -18.06647664
  exchange ACFDT corr.  =        -0.00000000  see jH, gK, PRB 81, 115126


--------------------------------------------------------------------------------------------------------




--------------------------------------- Iteration      1(  17)  ---------------------------------------


    POTLOK:  cpu time      0.1557: real time      0.1557
    SETDIJ:  cpu time      0.1750: real time      0.1750
    TRIAL :  cpu time      1.5230: real time      1.5231
    CORREC:  cpu time      2.0284: real time      2.0286
    CHARGE:  cpu time      0.2150: real time      0.2152
    --------------------------------------------
      LOOP:  cpu time      4.1004: real time      4.1099

 eigenvalue-minimisations  :     0
 total energy-change (2. order) :-0.6653225E-05  (-0.9361024E-05)
 number of electron       9.9999985 magnetization 
 augmentation part        0.6594583 magnetization 

 DIPCOR: dipole corrections for dipol
 direction  1 min pos     1, direction  2 min pos     1, direction  3 min pos     1,
 dipolmoment          -0.000000     -0.000000     -0.003694 electrons x Angstroem
 Tr[quadrupol]         5.350573

 energy correction for charged system         0.000000 eV
 dipol+quadrupol energy correction           -0.000000 eV
 added-field ion interaction          0.000025 eV  (added to PSCEN)


 Free energy of the ion-electron system (eV)
  ---------------------------------------------------
  alpha Z        PSCENC =         0.05173225
  Ewald energy   TEWEN  =       202.76714932
  -Hartree energ DENC   =      -683.75251385
  -exchange      EXHF   =        24.88953759
  -V(xc)+E(xc)   XCENC  =        32.29811726
  PAW double counting   =       839.47626745     -842.01044164
  entropy T*S    EENTRO =        -0.00000000
  eigenvalues    EBANDS =      -167.93137384
  atomic energy  EATOM  =       576.14504219
  ---------------------------------------------------
  free energy    TOTEN  =       -18.06648329 eV

  energy without entropy =      -18.06648329  energy(sigma->0) =      -18.06648329
  exchange ACFDT corr.  =         0.00000000  see jH, gK, PRB 81, 115126


--------------------------------------------------------------------------------------------------------




--------------------------------------- Iteration      1(  18)  ---------------------------------------


    POTLOK:  cpu time      0.1574: real time      0.1574
    SETDIJ:  cpu time      0.1726: real time      0.1726
    TRIAL :  cpu time      1.5190: real time      1.5192
    CORREC:  cpu time      2.0244: real time      2.0246
    CHARGE:  cpu time      0.2150: real time      0.2151
    --------------------------------------------
      LOOP:  cpu time      4.1006: real time      4.1016

 eigenvalue-minimisations  :     0
 total energy-change (2. order) :-0.1163654E-04  (-0.3272044E-05)
 number of electron       9.9999985 magnetization 
 augmentation part        0.6594620 magnetization 

 DIPCOR: dipole corrections for dipol
 direction  1 min pos     1, direction  2 min pos     1, direction  3 min pos     1,
 dipolmoment          -0.000000     -0.000000     -0.003697 electrons x Angstroem
 Tr[quadrupol]         5.350350

 energy correction for charged system         0.000000 eV
 dipol+quadrupol energy correction           -0.000000 eV
 added-field ion interaction          0.000025 eV  (added to PSCEN)


 Free energy of the ion-electron system (eV)
  ---------------------------------------------------
  alpha Z        PSCENC =         0.05173310
  Ewald energy   TEWEN  =       202.76714932
  -Hartree energ DENC   =      -683.75337592
  -exchange      EXHF   =        24.88967445
  -V(xc)+E(xc)   XCENC  =        32.29805813
  PAW double counting   =       839.56582843     -842.09975022
  entropy T*S    EENTRO =        -0.00000000
  eigenvalues    EBANDS =      -167.93085440
  atomic energy  EATOM  =       576.14504219
  ---------------------------------------------------
  free energy    TOTEN  =       -18.06649493 eV

  energy without entropy =      -18.06649493  energy(sigma->0) =      -18.06649493
  exchange ACFDT corr.  =         0.00000000  see jH, gK, PRB 81, 115126


--------------------------------------------------------------------------------------------------------




--------------------------------------- Iteration      1(  19)  ---------------------------------------


    POTLOK:  cpu time      0.1567: real time      0.1567
    SETDIJ:  cpu time      0.1731: real time      0.1731
    TRIAL :  cpu time      1.5133: real time      1.5135
    CORREC:  cpu time      2.0250: real time      2.0253
    CHARGE:  cpu time      0.2131: real time      0.2133
    --------------------------------------------
      LOOP:  cpu time      4.0851: real time      4.0940

 eigenvalue-minimisations  :     0
 total energy-change (2. order) : 0.4089842E-05  (-0.3826148E-05)
 number of electron       9.9999985 magnetization 
 augmentation part        0.6594812 magnetization 

 DIPCOR: dipole corrections for dipol
 direction  1 min pos     1, direction  2 min pos     1, direction  3 min pos     1,
 dipolmoment          -0.000000     -0.000000     -0.003704 electrons x Angstroem
 Tr[quadrupol]         5.350616

 energy correction for charged system         0.000000 eV
 dipol+quadrupol energy correction           -0.000000 eV
 added-field ion interaction          0.000025 eV  (added to PSCEN)


 Free energy of the ion-electron system (eV)
  ---------------------------------------------------
  alpha Z        PSCENC =         0.05173296
  Ewald energy   TEWEN  =       202.76714932
  -Hartree energ DENC   =      -683.75502878
  -exchange      EXHF   =        24.88975507
  -V(xc)+E(xc)   XCENC  =        32.29863523
  PAW double counting   =       839.57444385     -842.10838728
  entropy T*S    EENTRO =        -0.00000000
  eigenvalues    EBANDS =      -167.92983339
  atomic energy  EATOM  =       576.14504219
  ---------------------------------------------------
  free energy    TOTEN  =       -18.06649084 eV

  energy without entropy =      -18.06649084  energy(sigma->0) =      -18.06649084
  exchange ACFDT corr.  =         0.00000000  see jH, gK, PRB 81, 115126


--------------------------------------------------------------------------------------------------------




--------------------------------------- Iteration      1(  20)  ---------------------------------------


    POTLOK:  cpu time      0.1574: real time      0.1574
    SETDIJ:  cpu time      0.1729: real time      0.1729
    TRIAL :  cpu time      1.5154: real time      1.5155
    CORREC:  cpu time      2.0203: real time      2.0208
    CHARGE:  cpu time      0.2149: real time      0.2150
    --------------------------------------------
      LOOP:  cpu time      4.0935: real time      4.0948

 eigenvalue-minimisations  :     0
 total energy-change (2. order) :-0.3372094E-05  (-0.4993615E-05)
 number of electron       9.9999985 magnetization 
 augmentation part        0.6594864 magnetization 

 DIPCOR: dipole corrections for dipol
 direction  1 min pos     1, direction  2 min pos     1, direction  3 min pos     1,
 dipolmoment          -0.000000     -0.000000     -0.003794 electrons x Angstroem
 Tr[quadrupol]         5.350433

 energy correction for charged system         0.000000 eV
 dipol+quadrupol energy correction           -0.000000 eV
 added-field ion interaction          0.000026 eV  (added to PSCEN)


 Free energy of the ion-electron system (eV)
  ---------------------------------------------------
  alpha Z        PSCENC =         0.05173287
  Ewald energy   TEWEN  =       202.76714932
  -Hartree energ DENC   =      -683.75416089
  -exchange      EXHF   =        24.88977971
  -V(xc)+E(xc)   XCENC  =        32.29827509
  PAW double counting   =       839.59156472     -842.12558718
  entropy T*S    EENTRO =        -0.00000000
  eigenvalues    EBANDS =      -167.93029003
  atomic energy  EATOM  =       576.14504219
  ---------------------------------------------------
  free energy    TOTEN  =       -18.06649421 eV

  energy without entropy =      -18.06649421  energy(sigma->0) =      -18.06649421
  exchange ACFDT corr.  =         0.00000000  see jH, gK, PRB 81, 115126


--------------------------------------------------------------------------------------------------------




--------------------------------------- Iteration      1(  21)  ---------------------------------------


    POTLOK:  cpu time      0.1574: real time      0.1574
    SETDIJ:  cpu time      0.1720: real time      0.1721
    TRIAL :  cpu time      1.5158: real time      1.5160
    CORREC:  cpu time      2.0261: real time      2.0263
    CHARGE:  cpu time      0.2138: real time      0.2139
    --------------------------------------------
      LOOP:  cpu time      4.0979: real time      4.0987

 eigenvalue-minimisations  :     0
 total energy-change (2. order) :-0.3779133E-05  (-0.6694410E-06)
 number of electron       9.9999985 magnetization 
 augmentation part        0.6594888 magnetization 

 DIPCOR: dipole corrections for dipol
 direction  1 min pos     1, direction  2 min pos     1, direction  3 min pos     1,
 dipolmoment          -0.000000     -0.000000     -0.003737 electrons x Angstroem
 Tr[quadrupol]         5.350441

 energy correction for charged system         0.000000 eV
 dipol+quadrupol energy correction           -0.000000 eV
 added-field ion interaction          0.000025 eV  (added to PSCEN)


 Free energy of the ion-electron system (eV)
  ---------------------------------------------------
  alpha Z        PSCENC =         0.05173336
  Ewald energy   TEWEN  =       202.76714932
  -Hartree energ DENC   =      -683.75667519
  -exchange      EXHF   =        24.88986799
  -V(xc)+E(xc)   XCENC  =        32.29852236
  PAW double counting   =       839.59967695     -842.13372131
  entropy T*S    EENTRO =        -0.00000000
  eigenvalues    EBANDS =      -167.92809365
  atomic energy  EATOM  =       576.14504219
  ---------------------------------------------------
  free energy    TOTEN  =       -18.06649799 eV

  energy without entropy =      -18.06649799  energy(sigma->0) =      -18.06649799
  exchange ACFDT corr.  =        -0.00000000  see jH, gK, PRB 81, 115126


--------------------------------------------------------------------------------------------------------




--------------------------------------- Iteration      1(  22)  ---------------------------------------


    POTLOK:  cpu time      0.1587: real time      0.1587
    SETDIJ:  cpu time      0.1701: real time      0.1701
    TRIAL :  cpu time      1.5233: real time      1.5234
    CORREC:  cpu time      2.0284: real time      2.0286
    CHARGE:  cpu time      0.2156: real time      0.2157
    --------------------------------------------
      LOOP:  cpu time      4.1085: real time      4.1094

 eigenvalue-minimisations  :     0
 total energy-change (2. order) :-0.1564273E-05  (-0.2635605E-06)
 number of electron       9.9999985 magnetization 
 augmentation part        0.6594900 magnetization 

 DIPCOR: dipole corrections for dipol
 direction  1 min pos     1, direction  2 min pos     1, direction  3 min pos     1,
 dipolmoment          -0.000000     -0.000000     -0.003712 electrons x Angstroem
 Tr[quadrupol]         5.350410

 energy correction for charged system         0.000000 eV
 dipol+quadrupol energy correction           -0.000000 eV
 added-field ion interaction          0.000025 eV  (added to PSCEN)


 Free energy of the ion-electron system (eV)
  ---------------------------------------------------
  alpha Z        PSCENC =         0.05173325
  Ewald energy   TEWEN  =       202.76714932
  -Hartree energ DENC   =      -683.75654828
  -exchange      EXHF   =        24.88986124
  -V(xc)+E(xc)   XCENC  =        32.29845495
  PAW double counting   =       839.60210859     -842.13616273
  entropy T*S    EENTRO =        -0.00000000
  eigenvalues    EBANDS =      -167.92813807
  atomic energy  EATOM  =       576.14504219
  ---------------------------------------------------
  free energy    TOTEN  =       -18.06649955 eV

  energy without entropy =      -18.06649955  energy(sigma->0) =      -18.06649955
  exchange ACFDT corr.  =        -0.00000000  see jH, gK, PRB 81, 115126


--------------------------------------------------------------------------------------------------------




--------------------------------------- Iteration      1(  23)  ---------------------------------------


    POTLOK:  cpu time      0.1568: real time      0.1568
    SETDIJ:  cpu time      0.1734: real time      0.1734
    TRIAL :  cpu time      1.5310: real time      1.5314
    CORREC:  cpu time      2.0325: real time      2.0328
    CHARGE:  cpu time      0.2148: real time      0.2150
    --------------------------------------------
      LOOP:  cpu time      4.1154: real time      4.1232

 eigenvalue-minimisations  :     0
 total energy-change (2. order) : 0.9732175E-06  (-0.5300199E-07)
 number of electron       9.9999985 magnetization 
 augmentation part        0.6594902 magnetization 

 DIPCOR: dipole corrections for dipol
 direction  1 min pos     1, direction  2 min pos     1, direction  3 min pos     1,
 dipolmoment          -0.000000     -0.000000     -0.003696 electrons x Angstroem
 Tr[quadrupol]         5.350353

 energy correction for charged system         0.000000 eV
 dipol+quadrupol energy correction           -0.000000 eV
 added-field ion interaction          0.000025 eV  (added to PSCEN)


 Free energy of the ion-electron system (eV)
  ---------------------------------------------------
  alpha Z        PSCENC =         0.05173318
  Ewald energy   TEWEN  =       202.76714932
  -Hartree energ DENC   =      -683.75656871
  -exchange      EXHF   =        24.88986273
  -V(xc)+E(xc)   XCENC  =        32.29841902
  PAW double counting   =       839.60351446     -842.13757283
  entropy T*S    EENTRO =        -0.00000000
  eigenvalues    EBANDS =      -167.92807791
  atomic energy  EATOM  =       576.14504219
  ---------------------------------------------------
  free energy    TOTEN  =       -18.06649858 eV

  energy without entropy =      -18.06649858  energy(sigma->0) =      -18.06649858
  exchange ACFDT corr.  =        -0.00000000  see jH, gK, PRB 81, 115126


--------------------------------------------------------------------------------------------------------




--------------------------------------- Iteration      1(  24)  ---------------------------------------


    POTLOK:  cpu time      0.1584: real time      0.1584
    SETDIJ:  cpu time      0.1718: real time      0.1718
    TRIAL :  cpu time      1.5138: real time      1.5139
    CORREC:  cpu time      2.0326: real time      2.0329
    CHARGE:  cpu time      0.2152: real time      0.2153
    --------------------------------------------
      LOOP:  cpu time      4.1036: real time      4.1045

 eigenvalue-minimisations  :     0
 total energy-change (2. order) : 0.5660123E-06  (-0.3219109E-07)
 number of electron       9.9999985 magnetization 
 augmentation part        0.6594902 magnetization 

 DIPCOR: dipole corrections for dipol
 direction  1 min pos     1, direction  2 min pos     1, direction  3 min pos     1,
 dipolmoment          -0.000000     -0.000000     -0.003731 electrons x Angstroem
 Tr[quadrupol]         5.350469

 energy correction for charged system         0.000000 eV
 dipol+quadrupol energy correction           -0.000000 eV
 added-field ion interaction          0.000025 eV  (added to PSCEN)


 Free energy of the ion-electron system (eV)
  ---------------------------------------------------
  alpha Z        PSCENC =         0.05173314
  Ewald energy   TEWEN  =       202.76714932
  -Hartree energ DENC   =      -683.75661476
  -exchange      EXHF   =        24.88986535
  -V(xc)+E(xc)   XCENC  =        32.29849235
  PAW double counting   =       839.60409859     -842.13815805
  entropy T*S    EENTRO =        -0.00000000
  eigenvalues    EBANDS =      -167.92810614
  atomic energy  EATOM  =       576.14504219
  ---------------------------------------------------
  free energy    TOTEN  =       -18.06649801 eV

  energy without entropy =      -18.06649801  energy(sigma->0) =      -18.06649801
  exchange ACFDT corr.  =        -0.00000000  see jH, gK, PRB 81, 115126


--------------------------------------------------------------------------------------------------------




--------------------------------------- Iteration      1(  25)  ---------------------------------------


    POTLOK:  cpu time      0.1573: real time      0.1574
    SETDIJ:  cpu time      0.1723: real time      0.1723
    TRIAL :  cpu time      1.5143: real time      1.5144
    CORREC:  cpu time      2.0347: real time      2.0351
    CHARGE:  cpu time      0.2135: real time      0.2140
    --------------------------------------------
      LOOP:  cpu time      4.0961: real time      4.1050

 eigenvalue-minimisations  :     0
 total energy-change (2. order) :-0.6104332E-06  (-0.2573555E-07)
 number of electron       9.9999985 magnetization 
 augmentation part        0.6594903 magnetization 

 DIPCOR: dipole corrections for dipol
 direction  1 min pos     1, direction  2 min pos     1, direction  3 min pos     1,
 dipolmoment          -0.000000     -0.000000     -0.003749 electrons x Angstroem
 Tr[quadrupol]         5.350470

 energy correction for charged system         0.000000 eV
 dipol+quadrupol energy correction           -0.000000 eV
 added-field ion interaction          0.000026 eV  (added to PSCEN)


 Free energy of the ion-electron system (eV)
  ---------------------------------------------------
  alpha Z        PSCENC =         0.05173313
  Ewald energy   TEWEN  =       202.76714932
  -Hartree energ DENC   =      -683.75654863
  -exchange      EXHF   =        24.88986407
  -V(xc)+E(xc)   XCENC  =        32.29845694
  PAW double counting   =       839.60427286     -842.13833251
  entropy T*S    EENTRO =        -0.00000000
[...]
      LOOP:  cpu time      4.0982: real time      4.1069

 eigenvalue-minimisations  :     0
 total energy-change (2. order) : 0.5458810E-05  (-0.6591228E-06)
 number of electron       9.9999987 magnetization 
 augmentation part        0.6649624 magnetization 

 DIPCOR: dipole corrections for dipol
 direction  1 min pos     1, direction  2 min pos     1, direction  3 min pos     1,
 dipolmoment          -0.000000     -0.000000     -0.011339 electrons x Angstroem
 Tr[quadrupol]         5.339813

 energy correction for charged system         0.000000 eV
 dipol+quadrupol energy correction           -0.000000 eV
 added-field ion interaction          0.000077 eV  (added to PSCEN)


 Free energy of the ion-electron system (eV)
  ---------------------------------------------------
  alpha Z        PSCENC =         0.05178352
  Ewald energy   TEWEN  =       205.47104096
  -Hartree energ DENC   =      -685.93314092
  -exchange      EXHF   =        24.94770711
  -V(xc)+E(xc)   XCENC  =        32.36097876
  PAW double counting   =       856.54817990     -859.09678497
  entropy T*S    EENTRO =        -0.00000000
  eigenvalues    EBANDS =      -168.56739813
  atomic energy  EATOM  =       576.14504219
  ---------------------------------------------------
  free energy    TOTEN  =       -18.07259159 eV

  energy without entropy =      -18.07259159  energy(sigma->0) =      -18.07259159
  exchange ACFDT corr.  =         0.00000000  see jH, gK, PRB 81, 115126


--------------------------------------------------------------------------------------------------------




--------------------------------------- Iteration      5(   8)  ---------------------------------------


    POTLOK:  cpu time      0.1568: real time      0.1568
    SETDIJ:  cpu time      0.1725: real time      0.1725
    TRIAL :  cpu time      1.5220: real time      1.5222
    CORREC:  cpu time      2.0290: real time      2.0292
    CHARGE:  cpu time      0.2124: real time      0.2126
    --------------------------------------------
      LOOP:  cpu time      4.0983: real time      4.1065

 eigenvalue-minimisations  :     0
 total energy-change (2. order) :-0.9831979E-06  (-0.2844984E-06)
 number of electron       9.9999987 magnetization 
 augmentation part        0.6649610 magnetization 

 DIPCOR: dipole corrections for dipol
 direction  1 min pos     1, direction  2 min pos     1, direction  3 min pos     1,
 dipolmoment          -0.000000     -0.000000     -0.011313 electrons x Angstroem
 Tr[quadrupol]         5.339810

 energy correction for charged system         0.000000 eV
 dipol+quadrupol energy correction           -0.000000 eV
 added-field ion interaction          0.000076 eV  (added to PSCEN)


 Free energy of the ion-electron system (eV)
  ---------------------------------------------------
  alpha Z        PSCENC =         0.05178367
  Ewald energy   TEWEN  =       205.47104096
  -Hartree energ DENC   =      -685.93234057
  -exchange      EXHF   =        24.94768619
  -V(xc)+E(xc)   XCENC  =        32.36087210
  PAW double counting   =       856.54629416     -859.09489212
  entropy T*S    EENTRO =        -0.00000000
  eigenvalues    EBANDS =      -168.56807916
  atomic energy  EATOM  =       576.14504219
  ---------------------------------------------------
  free energy    TOTEN  =       -18.07259258 eV

  energy without entropy =      -18.07259258  energy(sigma->0) =      -18.07259258
  exchange ACFDT corr.  =         0.00000000  see jH, gK, PRB 81, 115126


--------------------------------------------------------------------------------------------------------




--------------------------------------- Iteration      5(   9)  ---------------------------------------


    POTLOK:  cpu time      0.1560: real time      0.1560
    SETDIJ:  cpu time      0.1739: real time      0.1739
    TRIAL :  cpu time      1.5233: real time      1.5234
    CORREC:  cpu time      2.0279: real time      2.0281
    CHARGE:  cpu time      0.2138: real time      0.2139
    --------------------------------------------
      LOOP:  cpu time      4.0984: real time      4.1075

 eigenvalue-minimisations  :     0
 total energy-change (2. order) : 0.1126124E-05  ( 0.5354822E-07)
 number of electron       9.9999987 magnetization 
 augmentation part        0.6649594 magnetization 

 DIPCOR: dipole corrections for dipol
 direction  1 min pos     1, direction  2 min pos     1, direction  3 min pos     1,
 dipolmoment          -0.000000     -0.000000     -0.011280 electrons x Angstroem
 Tr[quadrupol]         5.339765

 energy correction for charged system         0.000000 eV
 dipol+quadrupol energy correction           -0.000000 eV
 added-field ion interaction          0.000076 eV  (added to PSCEN)


 Free energy of the ion-electron system (eV)
  ---------------------------------------------------
  alpha Z        PSCENC =         0.05178369
  Ewald energy   TEWEN  =       205.47104096
  -Hartree energ DENC   =      -685.93183662
  -exchange      EXHF   =        24.94767482
  -V(xc)+E(xc)   XCENC  =        32.36088009
  PAW double counting   =       856.54414487     -859.09273626
  entropy T*S    EENTRO =        -0.00000000
  eigenvalues    EBANDS =      -168.56858518
  atomic energy  EATOM  =       576.14504219
  ---------------------------------------------------
  free energy    TOTEN  =       -18.07259145 eV

  energy without entropy =      -18.07259145  energy(sigma->0) =      -18.07259145
  exchange ACFDT corr.  =         0.00000000  see jH, gK, PRB 81, 115126


--------------------------------------------------------------------------------------------------------




--------------------------------------- Iteration      5(  10)  ---------------------------------------


    POTLOK:  cpu time      0.1568: real time      0.1568
    SETDIJ:  cpu time      0.1730: real time      0.1731
    TRIAL :  cpu time      1.5218: real time      1.5219
    CORREC:  cpu time      2.0272: real time      2.0274
    CHARGE:  cpu time      0.2151: real time      0.2153
    --------------------------------------------
      LOOP:  cpu time      4.0984: real time      4.1074

 eigenvalue-minimisations  :     0
 total energy-change (2. order) :-0.3003793E-05  (-0.7032089E-06)
 number of electron       9.9999987 magnetization 
 augmentation part        0.6649589 magnetization 

 DIPCOR: dipole corrections for dipol
 direction  1 min pos     1, direction  2 min pos     1, direction  3 min pos     1,
 dipolmoment          -0.000000     -0.000000     -0.011301 electrons x Angstroem
 Tr[quadrupol]         5.339657

 energy correction for charged system         0.000000 eV
 dipol+quadrupol energy correction           -0.000000 eV
 added-field ion interaction          0.000076 eV  (added to PSCEN)


 Free energy of the ion-electron system (eV)
  ---------------------------------------------------
  alpha Z        PSCENC =         0.05178349
  Ewald energy   TEWEN  =       205.47104096
  -Hartree energ DENC   =      -685.93170031
  -exchange      EXHF   =        24.94767806
  -V(xc)+E(xc)   XCENC  =        32.36075632
  PAW double counting   =       856.54042208     -859.08900267
  entropy T*S    EENTRO =        -0.00000000
  eigenvalues    EBANDS =      -168.56861457
  atomic energy  EATOM  =       576.14504219
  ---------------------------------------------------
  free energy    TOTEN  =       -18.07259445 eV

  energy without entropy =      -18.07259445  energy(sigma->0) =      -18.07259445
  exchange ACFDT corr.  =         0.00000000  see jH, gK, PRB 81, 115126


--------------------------------------------------------------------------------------------------------




--------------------------------------- Iteration      5(  11)  ---------------------------------------


    POTLOK:  cpu time      0.1567: real time      0.1567
    SETDIJ:  cpu time      0.1735: real time      0.1736
    TRIAL :  cpu time      1.5223: real time      1.5224
    CORREC:  cpu time      2.0297: real time      2.0299
    CHARGE:  cpu time      0.2137: real time      0.2138
    --------------------------------------------
      LOOP:  cpu time      4.0997: real time      4.1084

 eigenvalue-minimisations  :     0
 total energy-change (2. order) : 0.2969645E-05  (-0.2038622E-06)
 number of electron       9.9999987 magnetization 
 augmentation part        0.6649593 magnetization 

 DIPCOR: dipole corrections for dipol
 direction  1 min pos     1, direction  2 min pos     1, direction  3 min pos     1,
 dipolmoment          -0.000000     -0.000000     -0.011302 electrons x Angstroem
 Tr[quadrupol]         5.339741

 energy correction for charged system         0.000000 eV
 dipol+quadrupol energy correction           -0.000000 eV
 added-field ion interaction          0.000076 eV  (added to PSCEN)


 Free energy of the ion-electron system (eV)
  ---------------------------------------------------
  alpha Z        PSCENC =         0.05178355
  Ewald energy   TEWEN  =       205.47104096
  -Hartree energ DENC   =      -685.93216319
  -exchange      EXHF   =        24.94769545
  -V(xc)+E(xc)   XCENC  =        32.36095614
  PAW double counting   =       856.54063205     -859.08921037
  entropy T*S    EENTRO =        -0.00000000
  eigenvalues    EBANDS =      -168.56836826
  atomic energy  EATOM  =       576.14504219
  ---------------------------------------------------
  free energy    TOTEN  =       -18.07259148 eV

  energy without entropy =      -18.07259148  energy(sigma->0) =      -18.07259148
  exchange ACFDT corr.  =         0.00000000  see jH, gK, PRB 81, 115126


--------------------------------------------------------------------------------------------------------




--------------------------------------- Iteration      5(  12)  ---------------------------------------


    POTLOK:  cpu time      0.1569: real time      0.1570
    SETDIJ:  cpu time      0.1734: real time      0.1734
    TRIAL :  cpu time      1.5307: real time      1.5308
    CORREC:  cpu time      2.0299: real time      2.0302
    EDDIAG:  cpu time      1.4896: real time      1.4897
    CHARGE:  cpu time      0.2135: real time      0.2136
    --------------------------------------------
      LOOP:  cpu time      5.6063: real time      5.6075

 eigenvalue-minimisations  :     0
 total energy-change (2. order) : 0.2228830E-07  ( 0.3178181E-07)
 number of electron       9.9999987 magnetization 
 augmentation part        0.6649617 magnetization 

 DIPCOR: dipole corrections for dipol
 direction  1 min pos     1, direction  2 min pos     1, direction  3 min pos     1,
 dipolmoment          -0.000000     -0.000000     -0.011295 electrons x Angstroem
 Tr[quadrupol]         5.339654

 energy correction for charged system         0.000000 eV
 dipol+quadrupol energy correction           -0.000000 eV
 added-field ion interaction          0.000076 eV  (added to PSCEN)


 Free energy of the ion-electron system (eV)
  ---------------------------------------------------
  alpha Z        PSCENC =         0.05178359
  Ewald energy   TEWEN  =       205.47104096
  -Hartree energ DENC   =      -685.93217129
  -exchange      EXHF   =        24.94773830
  -V(xc)+E(xc)   XCENC  =        32.36078525
  PAW double counting   =       856.53983137     -859.08841083
  entropy T*S    EENTRO =        -0.00000000
  eigenvalues    EBANDS =      -168.56818821
  atomic energy  EATOM  =       576.14504219
  ---------------------------------------------------
  free energy    TOTEN  =       -18.07259146 eV

  energy without entropy =      -18.07259146  energy(sigma->0) =      -18.07259146
  exchange ACFDT corr.  =         0.00000000  see jH, gK, PRB 81, 115126


--------------------------------------------------------------------------------------------------------


  average scaling for gradient   1.0020


 average (electrostatic) potential at core
  the test charge radii are     0.6991  0.7215
  (the norm of the test charge is              1.0000)
       1 -58.3657       2 -78.3130



 E-fermi : -10.1188     XC(G=0):  -0.0623     alpha+bet : -0.0207

 Fermi energy:       -10.1187880396

 k-point     1 :       0.0000    0.0000    0.0000
  band No.  band energies     occupation 
      1     -31.9486      2.00000
      2     -15.7217      2.00000
      3     -13.0939      2.00000
      4     -13.0939      2.00000
      5     -10.4256      2.00000
      6      -1.0614      0.00000
      7      -1.0614      0.00000
      8      -0.0243      0.00000
      9       0.2576      0.00000
     10       0.3287      0.00000
     11       0.3656      0.00000
     12       0.3721      0.00000
     13       0.3721      0.00000
     14       0.3833      0.00000
     15       0.6275      0.00000
     16       0.6747      0.00000


--------------------------------------------------------------------------------------------------------


 soft charge-density along one line, spin component           1
         0         1         2         3         4         5         6         7         8         9
 total charge-density along one line

 pseudopotential strength for first ion, spin component:           1
 10.170  13.524   0.000   0.020  -0.000  -0.000  -0.065   0.000
 13.524  17.984   0.000   0.025  -0.000  -0.000  -0.085   0.000
  0.000   0.000  -4.479   0.000  -0.000   8.794  -0.000   0.000
  0.020   0.025   0.000  -4.437   0.000  -0.000   8.685  -0.000
 -0.000  -0.000  -0.000   0.000  -4.479   0.000  -0.000   8.794
 -0.000  -0.000   8.794  -0.000   0.000 -19.402  -0.000  -0.000
 -0.065  -0.085  -0.000   8.685  -0.000  -0.000 -19.130   0.000
  0.000   0.000   0.000  -0.000   8.794  -0.000   0.000 -19.402
 total augmentation occupancy for first ion, spin component:           1
  7.135  -3.265   0.000   2.250   0.000   0.000   0.399   0.000
 -3.265   1.929  -0.000  -1.704   0.000  -0.000  -0.237   0.000
  0.000  -0.000   0.812   0.000   0.000   0.061  -0.000   0.000
  2.250  -1.704   0.000   2.271   0.000   0.000   0.208   0.000
  0.000   0.000   0.000   0.000   0.812   0.000   0.000   0.061
  0.000  -0.000   0.061   0.000   0.000   0.005  -0.000   0.000
  0.399  -0.237  -0.000   0.208   0.000  -0.000   0.029   0.000
  0.000   0.000   0.000   0.000   0.061   0.000   0.000   0.005


------------------------ aborting loop because EDIFF is reached ----------------------------------------


    FORLOC:  cpu time      0.0053: real time      0.0053
    FORHF :  cpu time      0.4844: real time      0.4845
    FORNL :  cpu time      0.0026: real time      0.0026
    STRESS:  cpu time      0.0919: real time      0.0919
    FORCOR:  cpu time      0.1445: real time      0.1445
    OFIELD:  cpu time      0.0009: real time      0.0009

  Number of pair interactions contributing to vdW energy:     221
  Edisp (eV):   -0.00004
    FORVDW:  cpu time      0.0001: real time      0.0001

  FORCE on cell =-STRESS in cart. coord.  units (eV):
  Direction    XX          YY          ZZ          XY          YZ          ZX
  --------------------------------------------------------------------------------------
  Alpha Z     0.05171     0.05171     0.05171
  Ewald     -31.59249   -31.59249   268.65606    -0.00000    -0.00000    -0.00000
  Hartree   194.98918   194.98918   295.95510    -0.00000    -0.00000    -0.00000
  E(xc)     -35.96807   -35.96807   -34.78390    -0.00000    -0.00000    -0.00000
  Local    -297.90887  -297.90887  -672.34458     0.00000     0.00000    -0.00000
  n-local   -14.95971   -14.95971   -24.86530    -0.00000    -0.00000     0.00000
  augment     6.12584     6.12584     5.54739    -0.00000    -0.00000     0.00000
  Kinetic   191.03767   191.03767   176.09151     0.00000     0.00000    -0.00000
  Fock      -11.83781   -11.83781   -14.37973     0.00000     0.00000    -0.00000
  vdW        -0.00001    -0.00001     0.00008    -0.00000     0.00000    -0.00000
  -------------------------------------------------------------------------------------
  Total      -0.06255    -0.06255    -0.07168     0.00000    -0.00000     0.00000
  in kB      -0.01186    -0.01186    -0.01359     0.00000    -0.00000     0.00000
  external pressure =       -0.01 kB  Pullay stress =        0.00 kB


 VOLUME and BASIS-vectors are now :
 -----------------------------------------------------------------------------
  energy-cutoff  :      600.00
  volume of cell :     8450.53
      direct lattice vectors                 reciprocal lattice vectors
    20.000000000  0.000000000  0.000000000     0.050000000  0.000000000  0.000000000
     0.000000000 20.000000000  0.000000000     0.000000000  0.050000000  0.000000000
     0.000000000  0.000000000 21.126328287     0.000000000  0.000000000  0.047334302

  length of vectors
    20.000000000 20.000000000 21.126328287     0.050000000  0.050000000  0.047334302


 FORCES acting on ions:
    Electron-Ion                     Ewald-Force                    Non-Local-Force
 -----------------------------------------------------------------------------------------------
   -.226E-11 -.736E-10 0.241E+03   -.426E-17 0.398E-17 -.270E+03   0.000E+00 0.265E-22 0.276E+02
   -.292E-11 -.110E-09 -.208E+03   -.111E-16 -.178E-16 0.270E+03   0.000E+00 0.000E+00 -.552E+02
 -----------------------------------------------------------------------------------------------
   -.518E-11 -.184E-09 0.331E+02   -.154E-16 -.138E-16 0.000E+00   0.000E+00 0.265E-22 -.276E+02


 POSITION                                       TOTAL-FORCE (eV/Angst)
 -----------------------------------------------------------------------------------
     10.00000     10.00000      9.99767         0.000000      0.000000     -0.004444
     10.00000     10.00000     11.12866         0.000000     -0.000000      0.004444
 -----------------------------------------------------------------------------------
    total drift:                               -0.000000     -0.000000     -0.002003


--------------------------------------------------------------------------------------------------------



  FREE ENERGIE OF THE ION-ELECTRON SYSTEM (eV)
  ---------------------------------------------------
  free  energy   TOTEN  =       -18.07263332 eV

  energy  without entropy=      -18.07263332  energy(sigma->0) =      -18.07263332

 d Force = 0.6957014E-07[-0.236E-06, 0.375E-06]  d Energy =-0.2460420E-06 0.316E-06
 d Force =-0.1431803E-01[-0.143E-01,-0.143E-01]  d Ewald  =-0.1431803E-01 0.211E-10


--------------------------------------------------------------------------------------------------------


    POTLOK:  cpu time      0.3248: real time      0.3249


--------------------------------------------------------------------------------------------------------




--------------------------------------------------------------------------------------------------------


  
 reached required accuracy - stopping structural energy minimisation
     LOOP+:  cpu time     51.9193: real time     52.0263
    4ORBIT:  cpu time      0.0000: real time      0.0000

 total amount of memory used by VASP MPI-rank0   349276. kBytes
=======================================================================

   base      :      30000. kBytes
   nonl-proj :       5639. kBytes
   fftplans  :      25602. kBytes
   grid      :      32328. kBytes
   one-center:          1. kBytes
   HF        :          4. kBytes
   nonlr-proj:         29. kBytes
   wavefun   :       1692. kBytes
   fock_wrk  :     253981. kBytes

  
  
 General timing and accounting informations for this job:
 ========================================================
  
                  Total CPU time used (sec):      375.653
                            User time (sec):      343.056
                          System time (sec):       32.596
                         Elapsed time (sec):      377.570
  
                   Maximum memory used (kb):      518776.
                   Average memory used (kb):          N/A
  
                          Minor page faults:      9161579
                          Major page faults:           46
                 Voluntary context switches:         7110
