 vasp.6.3.0 20Jan22 (build Apr  1 2022 16:44:48) complex                         
 executed on        HPECrayEX_GCC date 2023.05.17  13:42:27
 running  512 mpi-ranks, with    1 threads/rank
 distrk:  each k-point on  256 cores,    2 groups
 distr:  one band on NCORE=   4 cores,   64 groups


--------------------------------------------------------------------------------------------------------


 INCAR:
   SYSTEM = MgO-rocksalt
   ISMEAR = 0
   SIGMA = 0.05
   EDIFF = 1E-6
   ALGO = ALL
   ISTART = 0
   IBRION = -1
   NSW = 0
   ISYM = 2
   ISIF = 2
   EDIFFG = -0.01
   DIPOL = 0.5 0.5 0.5
   IDIPOL = 3
   LDIPOL = .TRUE.
   GGA = PE
   IVDW = 1
   VDW_C6 = 1.75 0.70 0.63 0.70
   VDW_R0 = 1.452 1.342 1.243 1.342
   ENCUT = 600
   PREC = Normal
   LASPH = .TRUE.
   LREAL = .FALSE.
   ISPIN = 1
   NELM = 200
   NELMIN = 8
   NCORE = 4
   KPAR = 2
   LWAVE = .FALSE.
   LCHARG = .FALSE.

 POTCAR:    PAW_PBE C 08Apr2002                   
 POTCAR:    PAW_PBE O 08Apr2002                   
 POTCAR:    PAW_PBE Mg_pv 13Apr2007               
 POTCAR:    PAW_PBE O 08Apr2002                   
 POTCAR:    PAW_PBE C 08Apr2002                   
   SHA256 =  253f7b50bb8d59471dbedb8285d89021f4a42ed1a2c5d38a03a736e69125dd95 C/POTCAR              
   COPYR  = (c) Copyright 08Apr2002 Georg Kresse                                                    
   COPYR  = This file is part of the software VASP. Any use, copying, and all other rights are regul
   COPYR  = If you do not have a valid VASP license, you may not use, copy or distribute this file. 
   VRHFIN =C: s2p2                                                                                  
   LEXCH  = PE                                                                                      
   EATOM  =   147.1560 eV,   10.8157 Ry                                                             
                                                                                                    
   TITEL  = PAW_PBE C 08Apr2002                                                                     
   LULTRA =        F    use ultrasoft PP ?                                                          
   IUNSCR =        1    unscreen: 0-lin 1-nonlin 2-no                                               
   RPACOR =    1.200    partial core radius                                                         
   POMASS =   12.011; ZVAL   =    4.000    mass and valenz                                          
   RCORE  =    1.500    outmost cutoff radius                                                       
   RWIGS  =    1.630; RWIGS  =    0.863    wigner-seitz radius (au A)                               
   ENMAX  =  400.000; ENMIN  =  300.000 eV                                                          
   ICORE  =        2    local potential                                                             
   LCOR   =        T    correct aug charges                                                         
   LPAW   =        T    paw PP                                                                      
   EAUG   =  644.873                                                                                
   DEXC   =    0.000                                                                                
   RMAX   =    1.529    core radius for proj-oper                                                   
   RAUG   =    1.300    factor for augmentation sphere                                              
   RDEP   =    1.501    radius for radial grids                                                     
   RDEPT  =    1.300    core radius for aug-charge                                                  
                                                                                                    
   Atomic configuration                                                                             
    4 entries                                                                                       
     n  l   j            E        occ.                                                              
     1  0  0.50      -273.3789   2.0000                                                             
     2  0  0.50       -13.7508   2.0000                                                             
     2  1  0.50        -5.2854   2.0000                                                             
     3  2  1.50        -5.4423   0.0000                                                             
   Description                                                                                      
     l       E           TYP  RCUT    TYP  RCUT                                                     
     0    -13.7508458     23  1.200                                                                 
     0     -8.2022199     23  1.200                                                                 
     1     -5.2854383     23  1.500                                                                 
     1     34.0145650     23  1.500                                                                 
     2     -5.4423304      7  1.500                                                                 
  local pseudopotential read in
  partial core-charges read in
  partial kinetic energy density read in
  atomic valenz-charges read in
  non local Contribution for L=           0  read in
    real space projection operators read in
  non local Contribution for L=           0  read in
    real space projection operators read in
  non local Contribution for L=           1  read in
    real space projection operators read in
  non local Contribution for L=           1  read in
    real space projection operators read in
    PAW grid and wavefunctions read in

   number of l-projection  operators is LMAX  =           4
   number of lm-projection operators is LMMAX =           8

 POTCAR:    PAW_PBE O 08Apr2002                   
   SHA256 =  818f92134a0a090dccd8ba1447fa70422a3b330e708bb4f08108d8ae51209ddf O/POTCAR              
   COPYR  = (c) Copyright 08Apr2002 Georg Kresse                                                    
   COPYR  = This file is part of the software VASP. Any use, copying, and all other rights are regul
   COPYR  = If you do not have a valid VASP license, you may not use, copy or distribute this file. 
   VRHFIN =O: s2p4                                                                                  
   LEXCH  = PE                                                                                      
   EATOM  =   432.3788 eV,   31.7789 Ry                                                             
                                                                                                    
   TITEL  = PAW_PBE O 08Apr2002                                                                     
   LULTRA =        F    use ultrasoft PP ?                                                          
   IUNSCR =        1    unscreen: 0-lin 1-nonlin 2-no                                               
   RPACOR =    1.200    partial core radius                                                         
   POMASS =   16.000; ZVAL   =    6.000    mass and valenz                                          
   RCORE  =    1.520    outmost cutoff radius                                                       
   RWIGS  =    1.550; RWIGS  =    0.820    wigner-seitz radius (au A)                               
   ENMAX  =  400.000; ENMIN  =  300.000 eV                                                          
   ICORE  =        2    local potential                                                             
   LCOR   =        T    correct aug charges                                                         
   LPAW   =        T    paw PP                                                                      
   EAUG   =  605.392                                                                                
   DEXC   =    0.000                                                                                
   RMAX   =    1.553    core radius for proj-oper                                                   
   RAUG   =    1.300    factor for augmentation sphere                                              
   RDEP   =    1.550    radius for radial grids                                                     
   RDEPT  =    1.329    core radius for aug-charge                                                  
                                                                                                    
   Atomic configuration                                                                             
    4 entries                                                                                       
     n  l   j            E        occ.                                                              
     1  0  0.50      -514.6923   2.0000                                                             
     2  0  0.50       -23.9615   2.0000                                                             
     2  1  0.50        -9.0305   4.0000                                                             
     3  2  1.50        -9.5241   0.0000                                                             
   Description                                                                                      
     l       E           TYP  RCUT    TYP  RCUT                                                     
     0    -23.9615318     23  1.200                                                                 
     0     -9.5240782     23  1.200                                                                 
     1     -9.0304911     23  1.520                                                                 
     1      8.1634956     23  1.520                                                                 
     2     -9.5240782      7  1.500                                                                 
  local pseudopotential read in
  partial core-charges read in
  partial kinetic energy density read in
  kinetic energy density of atom read in
  atomic valenz-charges read in
  non local Contribution for L=           0  read in
    real space projection operators read in
  non local Contribution for L=           0  read in
    real space projection operators read in
  non local Contribution for L=           1  read in
    real space projection operators read in
  non local Contribution for L=           1  read in
    real space projection operators read in
    PAW grid and wavefunctions read in

   number of l-projection  operators is LMAX  =           4
   number of lm-projection operators is LMMAX =           8

 POTCAR:    PAW_PBE Mg_pv 13Apr2007               
   SHA256 =  f474ac0dd33840b9ae76c01d57fea79fdf77cdfbb07d5ade72c65f83c709b62b Mg_pv/POTCAR          
   COPYR  = (c) Copyright 13Apr2007 Georg Kresse                                                    
   COPYR  = This file is part of the software VASP. Any use, copying, and all other rights are regul
   COPYR  = If you do not have a valid VASP license, you may not use, copy or distribute this file. 
   VRHFIN =Mg: p6s2                                                                                 
   LEXCH  = PE                                                                                      
   EATOM  =  1056.7344 eV,   77.6678 Ry                                                             
                                                                                                    
   TITEL  = PAW_PBE Mg_pv 13Apr2007                                                                 
   LULTRA =        F    use ultrasoft PP ?                                                          
   IUNSCR =        1    unscreen: 0-lin 1-nonlin 2-no                                               
   RPACOR =    1.500    partial core radius                                                         
   POMASS =   24.305; ZVAL   =    8.000    mass and valenz                                          
   RCORE  =    2.000    outmost cutoff radius                                                       
   RWIGS  =    2.000; RWIGS  =    1.058    wigner-seitz radius (au A)                               
   ENMAX  =  403.929; ENMIN  =  302.947 eV                                                          
   RCLOC  =    1.506    cutoff for local pot                                                        
   LCOR   =        T    correct aug charges                                                         
   LPAW   =        T    paw PP                                                                      
   EAUG   =  758.780                                                                                
   DEXC   =    0.000                                                                                
   RMAX   =    2.045    core radius for proj-oper                                                   
   RAUG   =    1.300    factor for augmentation sphere                                              
   RDEP   =    2.025    radius for radial grids                                                     
   RDEPT  =    1.557    core radius for aug-charge                                                  
                                                                                                    
   Atomic configuration                                                                             
    5 entries                                                                                       
     n  l   j            E        occ.                                                              
     1  0  0.50     -1259.6230   2.0000                                                             
     2  0  0.50       -79.8442   2.0000                                                             
     2  1  1.50       -46.6121   6.0000                                                             
     3  0  0.50        -4.7055   2.0000                                                             
     3  2  1.50        -1.3606   0.0000                                                             
   Description                                                                                      
     l       E           TYP  RCUT    TYP  RCUT                                                     
     1    -46.6121073     23  1.600                                                                 
     1      2.7211652     23  1.600                                                                 
     0     -4.7054661     23  2.000                                                                 
     0     61.2262170     23  2.000                                                                 
     2     -1.3605826     23  2.000                                                                 
  local pseudopotential read in
  partial core-charges read in
  partial kinetic energy density read in
  atomic valenz-charges read in
  non local Contribution for L=           1  read in
    real space projection operators read in
  non local Contribution for L=           1  read in
    real space projection operators read in
  non local Contribution for L=           0  read in
    real space projection operators read in
  non local Contribution for L=           0  read in
    real space projection operators read in
  non local Contribution for L=           2  read in
    real space projection operators read in
    PAW grid and wavefunctions read in

   number of l-projection  operators is LMAX  =           5
   number of lm-projection operators is LMMAX =          13

 POTCAR:    PAW_PBE O 08Apr2002                   
   SHA256 =  818f92134a0a090dccd8ba1447fa70422a3b330e708bb4f08108d8ae51209ddf O/POTCAR              
   COPYR  = (c) Copyright 08Apr2002 Georg Kresse                                                    
   COPYR  = This file is part of the software VASP. Any use, copying, and all other rights are regul
   COPYR  = If you do not have a valid VASP license, you may not use, copy or distribute this file. 
   VRHFIN =O: s2p4                                                                                  
   LEXCH  = PE                                                                                      
   EATOM  =   432.3788 eV,   31.7789 Ry                                                             
                                                                                                    
   TITEL  = PAW_PBE O 08Apr2002                                                                     
   LULTRA =        F    use ultrasoft PP ?                                                          
   IUNSCR =        1    unscreen: 0-lin 1-nonlin 2-no                                               
   RPACOR =    1.200    partial core radius                                                         
   POMASS =   16.000; ZVAL   =    6.000    mass and valenz                                          
   RCORE  =    1.520    outmost cutoff radius                                                       
   RWIGS  =    1.550; RWIGS  =    0.820    wigner-seitz radius (au A)                               
   ENMAX  =  400.000; ENMIN  =  300.000 eV                                                          
   ICORE  =        2    local potential                                                             
   LCOR   =        T    correct aug charges                                                         
   LPAW   =        T    paw PP                                                                      
   EAUG   =  605.392                                                                                
   DEXC   =    0.000                                                                                
   RMAX   =    1.553    core radius for proj-oper                                                   
   RAUG   =    1.300    factor for augmentation sphere                                              
   RDEP   =    1.550    radius for radial grids                                                     
   RDEPT  =    1.329    core radius for aug-charge                                                  
                                                                                                    
   Atomic configuration                                                                             
    4 entries                                                                                       
     n  l   j            E        occ.                                                              
     1  0  0.50      -514.6923   2.0000                                                             
     2  0  0.50       -23.9615   2.0000                                                             
     2  1  0.50        -9.0305   4.0000                                                             
     3  2  1.50        -9.5241   0.0000                                                             
   Description                                                                                      
     l       E           TYP  RCUT    TYP  RCUT                                                     
     0    -23.9615318     23  1.200                                                                 
     0     -9.5240782     23  1.200                                                                 
     1     -9.0304911     23  1.520                                                                 
     1      8.1634956     23  1.520                                                                 
     2     -9.5240782      7  1.500                                                                 
  local pseudopotential read in
  partial core-charges read in
  partial kinetic energy density read in
  kinetic energy density of atom read in
  atomic valenz-charges read in
  non local Contribution for L=           0  read in
    real space projection operators read in
  non local Contribution for L=           0  read in
    real space projection operators read in
  non local Contribution for L=           1  read in
    real space projection operators read in
  non local Contribution for L=           1  read in
    real space projection operators read in
    PAW grid and wavefunctions read in

   number of l-projection  operators is LMAX  =           4
   number of lm-projection operators is LMMAX =           8

 -----------------------------------------------------------------------------
|                                                                             |
|               ----> ADVICE to this user running VASP <----                  |
|                                                                             |
|     You have a (more or less) 'large supercell' and for larger cells it     |
|     might be more efficient to use real-space projection operators.         |
|     Therefore, try LREAL= Auto in the INCAR file.                           |
|     Mind: For very accurate calculation, you might also keep the            |
|     reciprocal projection scheme (i.e. LREAL=.FALSE.).                      |
|                                                                             |
 -----------------------------------------------------------------------------

  PAW_PBE C 08Apr2002                   :
 energy of atom  1       EATOM= -147.1560
 kinetic energy error for atom=    0.0057 (will be added to EATOM!!)
  PAW_PBE O 08Apr2002                   :
 energy of atom  2       EATOM= -432.3788
 kinetic energy error for atom=    0.0168 (will be added to EATOM!!)
  PAW_PBE Mg_pv 13Apr2007               :
 energy of atom  3       EATOM=-1056.7344
 kinetic energy error for atom=    0.0221 (will be added to EATOM!!)
  PAW_PBE O 08Apr2002                   :
 energy of atom  4       EATOM= -432.3788
 kinetic energy error for atom=    0.0168 (will be added to EATOM!!)


 POSCAR:  C  O Mg  O
  positions in direct lattice
  No initial velocities read in
 exchange correlation table for  LEXCH =        8
   RHO(1)=    0.500       N(1)  =     2000
   RHO(2)=  100.500       N(2)  =     4000



--------------------------------------------------------------------------------------------------------


 ion  position               nearest neighbor table
   1  0.500  0.500  0.771-   2 1.15
   2  0.500  0.500  0.825-   1 1.15
   3  0.000  0.750  0.352-  35 2.11  37 2.11  38 2.11  45 2.11  54 2.11
   4  0.250  0.000  0.352-  36 2.11  37 2.11  38 2.11  46 2.11  53 2.11
   5  0.000  0.000  0.451-  37 2.11  36 2.11  35 2.11  43 2.11  52 2.11  41 2.12
   6  0.250  0.750  0.451-  38 2.11  36 2.11  35 2.11  44 2.11  51 2.11  42 2.12
   7  0.000  0.750  0.550-  49 2.11  42 2.11  58 2.11  41 2.11  35 2.12  39 2.15
   8  0.250  0.000  0.550-  57 2.11  50 2.11  42 2.11  41 2.11  36 2.12  40 2.15
   9  0.000  0.000  0.649-  39 2.11  40 2.11  47 2.11  56 2.11  41 2.11
  10  0.250  0.750  0.649-  42 2.11  40 2.11  39 2.11  48 2.11  55 2.11
  11  0.000  0.250  0.352-  43 2.11  37 2.11  45 2.11  46 2.11  62 2.11
  12  0.250  0.500  0.352-  44 2.11  38 2.11  45 2.11  46 2.11  61 2.11
  13  0.000  0.500  0.451-  45 2.11  43 2.11  44 2.11  35 2.11  60 2.11  49 2.12
  14  0.250  0.250  0.451-  46 2.11  43 2.11  44 2.11  36 2.11  59 2.11  50 2.12
  15  0.000  0.250  0.550-  49 2.11  50 2.11  66 2.11  41 2.11  43 2.12  47 2.15
  16  0.250  0.500  0.550-  65 2.11  50 2.11  42 2.11  49 2.11  44 2.13  48 2.15
  17  0.000  0.500  0.649-  48 2.10  64 2.10  49 2.11  47 2.11  39 2.11
  18  0.250  0.250  0.649-  50 2.11  47 2.11  40 2.11  48 2.11  63 2.11
  19  0.500  0.750  0.352-  51 2.11  38 2.11  53 2.11  54 2.11  61 2.11
  20  0.750  0.000  0.352-  52 2.11  37 2.11  53 2.11  54 2.11  62 2.11
  21  0.500  0.000  0.451-  53 2.11  51 2.11  52 2.11  36 2.11  59 2.11  57 2.12
  22  0.750  0.750  0.451-  54 2.11  51 2.11  52 2.11  35 2.11  60 2.11  58 2.12
  23  0.500  0.750  0.550-  65 2.11  58 2.11  42 2.11  57 2.11  51 2.13  55 2.15
  24  0.750  0.000  0.550-  57 2.11  58 2.11  66 2.11  41 2.11  52 2.12  56 2.15
  25  0.500  0.000  0.649-  55 2.10  63 2.10  57 2.11  40 2.11  56 2.11
  26  0.750  0.750  0.649-  58 2.11  56 2.11  39 2.11  55 2.11  64 2.11
  27  0.500  0.250  0.352-  59 2.11  53 2.11  46 2.11  61 2.11  62 2.11
  28  0.750  0.500  0.352-  60 2.11  54 2.11  45 2.11  61 2.11  62 2.11
  29  0.500  0.500  0.451-  61 2.11  51 2.11  59 2.11  60 2.11  44 2.11  65 2.13
  30  0.750  0.250  0.451-  62 2.11  52 2.11  59 2.11  60 2.11  43 2.11  66 2.12
  31  0.500  0.250  0.550-  65 2.11  50 2.11  66 2.11  57 2.11  59 2.13  63 2.15
  32  0.750  0.500  0.550-  65 2.11  58 2.11  66 2.11  49 2.11  60 2.13  64 2.15
  33  0.500  0.500  0.651-  48 2.12  55 2.12  63 2.12  64 2.12  65 2.14
  34  0.750  0.250  0.649-  66 2.11  56 2.11  47 2.11  64 2.11  63 2.11
  35  0.000  0.750  0.451-   3 2.11   5 2.11   6 2.11  13 2.11  22 2.11   7 2.12
  36  0.250  0.000  0.451-   4 2.11   5 2.11   6 2.11  14 2.11  21 2.11   8 2.12
  37  0.000  0.000  0.352-   5 2.11   4 2.11   3 2.11  11 2.11  20 2.11
  38  0.250  0.750  0.352-   6 2.11   4 2.11   3 2.11  12 2.11  19 2.11
  39  0.000  0.750  0.651-   9 2.11  10 2.11  26 2.11  17 2.11   7 2.15
  40  0.250  0.000  0.651-   9 2.11  10 2.11  18 2.11  25 2.11   8 2.15
  41  0.000  0.000  0.550-   9 2.11   8 2.11   7 2.11  15 2.11  24 2.11   5 2.12
  42  0.250  0.750  0.550-  10 2.11   8 2.11   7 2.11  16 2.11  23 2.11   6 2.12
  43  0.000  0.250  0.451-  11 2.11   5 2.11  13 2.11  14 2.11  30 2.11  15 2.12
  44  0.250  0.500  0.451-  12 2.11   6 2.11  13 2.11  14 2.11  29 2.11  16 2.13
  45  0.000  0.500  0.352-  13 2.11  11 2.11  12 2.11   3 2.11  28 2.11
  46  0.250  0.250  0.352-  14 2.11  11 2.11  12 2.11   4 2.11  27 2.11
  47  0.000  0.250  0.651-   9 2.11  18 2.11  34 2.11  17 2.11  15 2.15
  48  0.249  0.500  0.651-  17 2.10  10 2.11  18 2.11  33 2.12  16 2.15
  49  0.000  0.500  0.550-  17 2.11  15 2.11   7 2.11  16 2.11  32 2.11  13 2.12
  50  0.250  0.250  0.550-  18 2.11  15 2.11   8 2.11  16 2.11  31 2.11  14 2.12
  51  0.500  0.750  0.451-  19 2.11   6 2.11  21 2.11  22 2.11  29 2.11  23 2.13
  52  0.750  0.000  0.451-  20 2.11   5 2.11  21 2.11  22 2.11  30 2.11  24 2.12
  53  0.500  0.000  0.352-  21 2.11  19 2.11  20 2.11   4 2.11  27 2.11
  54  0.750  0.750  0.352-  22 2.11  19 2.11  20 2.11   3 2.11  28 2.11
  55  0.500  0.751  0.651-  25 2.10  10 2.11  26 2.11  33 2.12  23 2.15
  56  0.750  0.000  0.651-   9 2.11  26 2.11  34 2.11  25 2.11  24 2.15
  57  0.500  0.000  0.550-  25 2.11  24 2.11   8 2.11  23 2.11  31 2.11  21 2.12
  58  0.750  0.750  0.550-  26 2.11  24 2.11   7 2.11  32 2.11  23 2.11  22 2.12
  59  0.500  0.250  0.451-  27 2.11  21 2.11  14 2.11  29 2.11  30 2.11  31 2.13
  60  0.750  0.500  0.451-  28 2.11  22 2.11  13 2.11  29 2.11  30 2.11  32 2.13
  61  0.500  0.500  0.352-  29 2.11  19 2.11  27 2.11  28 2.11  12 2.11
  62  0.750  0.250  0.352-  30 2.11  20 2.11  27 2.11  28 2.11  11 2.11
  63  0.500  0.249  0.651-  25 2.10  18 2.11  34 2.11  33 2.12  31 2.15
  64  0.751  0.500  0.651-  17 2.10  26 2.11  34 2.11  33 2.12  32 2.15
  65  0.500  0.500  0.550-  16 2.11  23 2.11  31 2.11  32 2.11  29 2.13  33 2.14
  66  0.750  0.250  0.550-  34 2.11  24 2.11  15 2.11  32 2.11  31 2.11  30 2.12

  LATTYP: Found a simple tetragonal cell.
 ALAT       =     8.4409846542
 C/A-ratio  =     2.5270438657
  
  Lattice vectors:
  
 A1 = (   8.4409846542,   0.0000000000,   0.0000000000)
 A2 = (   0.0000000000,   8.4409846542,   0.0000000000)
 A3 = (   0.0000000000,   0.0000000000,  21.3307384906)


Analysis of symmetry for initial positions (statically):
=====================================================================
 Subroutine PRICEL returns:
 Original cell was already a primitive cell.
 

 Routine SETGRP: Setting up the symmetry group for a 
 simple tetragonal supercell.


 Subroutine GETGRP returns: Found  8 space group operations
 (whereof  8 operations were pure point group operations)
 out of a pool of 16 trial point group operations.


The static configuration has the point symmetry C_4v.


Analysis of symmetry for dynamics (positions and initial velocities):
=====================================================================
 Subroutine PRICEL returns:
 Original cell was already a primitive cell.
 

 Routine SETGRP: Setting up the symmetry group for a 
 simple tetragonal supercell.


 Subroutine GETGRP returns: Found  8 space group operations
 (whereof  8 operations were pure point group operations)
 out of a pool of 16 trial point group operations.


The dynamic configuration has the point symmetry C_4v.


 Subroutine INISYM returns: Found  8 space group operations
 (whereof  8 operations are pure point group operations),
 and found     1 'primitive' translations


----------------------------------------------------------------------------------------

                                     Primitive cell                                     

  volume of cell :    1519.8199

  direct lattice vectors                    reciprocal lattice vectors
     8.440984654  0.000000000  0.000000000     0.118469591  0.000000000  0.000000000
     0.000000000  8.440984654  0.000000000     0.000000000  0.118469591  0.000000000
     0.000000000  0.000000000 21.330738491     0.000000000  0.000000000  0.046880702

  length of vectors
     8.440984654  8.440984654 21.330738491     0.118469591  0.118469591  0.046880702

  position of ions in fractional coordinates (direct lattice)
     0.500000000  0.500000000  0.771100365
     0.500000000  0.500000000  0.824864083
     0.000000000  0.750000000  0.351605267
     0.250000000  0.000000000  0.351605267
     0.000000000  0.000000000  0.450535089
     0.250000000  0.750000000  0.450535089
     0.000000000  0.749939268  0.550083239
     0.250060732  0.000000000  0.550083239
     0.000000000  0.000000000  0.648745309
     0.249858327  0.750141673  0.648569547
     0.000000000  0.250000000  0.351605267
     0.250000000  0.500000000  0.351605267
     0.000000000  0.500000000  0.450535089
     0.250000000  0.250000000  0.450535089
     0.000000000  0.250060732  0.550083239
     0.250378379  0.500000000  0.550219524
     0.000000000  0.500000000  0.648615280
     0.249858327  0.249858327  0.648569547
     0.500000000  0.750000000  0.351605267
     0.750000000  0.000000000  0.351605267
     0.500000000  0.000000000  0.450535089
     0.750000000  0.750000000  0.450535089
     0.500000000  0.749621621  0.550219524
     0.749939268  0.000000000  0.550083239
     0.500000000  0.000000000  0.648615280
     0.750141673  0.750141673  0.648569547
     0.500000000  0.250000000  0.351605267
     0.750000000  0.500000000  0.351605267
     0.500000000  0.500000000  0.450535089
     0.750000000  0.250000000  0.450535089
     0.500000000  0.250378379  0.550219524
     0.749621621  0.500000000  0.550219524
     0.500000000  0.500000000  0.650616960
     0.750141673  0.249858327  0.648569547
     0.000000000  0.750000000  0.450535089
     0.250000000  0.000000000  0.450535089
     0.000000000  0.000000000  0.351605267
     0.250000000  0.750000000  0.351605267
     0.000000000  0.750218533  0.650979255
     0.249781467  0.000000000  0.650979255
     0.000000000  0.000000000  0.549809890
     0.249945770  0.750054230  0.549859113
     0.000000000  0.250000000  0.450535089
     0.250000000  0.500000000  0.450535089
     0.000000000  0.500000000  0.351605267
     0.250000000  0.250000000  0.351605267
     0.000000000  0.249781467  0.650979255
     0.248822710  0.500000000  0.650882872
     0.000000000  0.500000000  0.549762666
     0.249945770  0.249945770  0.549859113
     0.500000000  0.750000000  0.450535089
     0.750000000  0.000000000  0.450535089
     0.500000000  0.000000000  0.351605267
     0.750000000  0.750000000  0.351605267
     0.500000000  0.751177290  0.650882872
     0.750218533  0.000000000  0.650979255
     0.500000000  0.000000000  0.549762666
     0.750054230  0.750054230  0.549859113
     0.500000000  0.250000000  0.450535089
     0.750000000  0.500000000  0.450535089
     0.500000000  0.500000000  0.351605267
     0.750000000  0.250000000  0.351605267
     0.500000000  0.248822710  0.650882872
     0.751177290  0.500000000  0.650882872
     0.500000000  0.500000000  0.550231357
     0.750054230  0.249945770  0.549859113

  ion indices of the primitive-cell ions
   primitive index   ion index
                 1           1
                 2           2
                 3           3
                 4           4
                 5           5
                 6           6
                 7           7
                 8           8
                 9           9
                10          10
                11          11
                12          12
                13          13
                14          14
                15          15
                16          16
                17          17
                18          18
                19          19
                20          20
                21          21
                22          22
                23          23
                24          24
                25          25
                26          26
                27          27
                28          28
                29          29
                30          30
                31          31
                32          32
                33          33
                34          34
                35          35
                36          36
                37          37
                38          38
                39          39
                40          40
                41          41
                42          42
                43          43
                44          44
                45          45
                46          46
                47          47
                48          48
                49          49
                50          50
                51          51
                52          52
                53          53
                54          54
                55          55
                56          56
                57          57
                58          58
                59          59
                60          60
                61          61
                62          62
                63          63
                64          64
                65          65
                66          66

----------------------------------------------------------------------------------------



 KPOINTS: pymatgen v2020.8.13 with grid density = 

Automatic generation of k-mesh.
 Grid dimensions read from file:
 generate k-points for:    2    2    1

 Generating k-lattice:

  Cartesian coordinates                     Fractional coordinates (reciprocal lattice)
     0.059234796  0.000000000  0.000000000     0.500000000  0.000000000  0.000000000
     0.000000000  0.059234796  0.000000000     0.000000000  0.500000000  0.000000000
     0.000000000  0.000000000  0.046880702     0.000000000  0.000000000  1.000000000

  Length of vectors
     0.059234796  0.059234796  0.046880702

  Shift w.r.t. Gamma in fractional coordinates (k-lattice)
     0.000000000  0.000000000  0.000000000

 
 Subroutine IBZKPT returns following result:
 ===========================================
 
 Found      3 irreducible k-points:
 
 Following reciprocal coordinates:
            Coordinates               Weight
  0.000000  0.000000  0.000000      1.000000
  0.500000  0.000000  0.000000      2.000000
  0.500000  0.500000  0.000000      1.000000
 
 Following cartesian coordinates:
            Coordinates               Weight
  0.000000  0.000000  0.000000      1.000000
  0.059235  0.000000  0.000000      2.000000
  0.059235  0.059235  0.000000      1.000000
 


--------------------------------------------------------------------------------------------------------




 Dimension of arrays:
   k-points           NKPTS =      3   k-points in BZ     NKDIM =      3   number of bands    NBANDS=    320
   number of dos      NEDOS =    301   number of ions     NIONS =     66
   non local maximal  LDIM  =      5   non local SUM 2l+1 LMDIM =     13
   total plane-waves  NPLWV = 373248
   max r-space proj   IRMAX =      1   max aug-charges    IRDMAX=   5039
   dimension x,y,z NGX =    54 NGY =   54 NGZ =  128
   dimension x,y,z NGXF=   108 NGYF=  108 NGZF=  256
   support grid    NGXF=   108 NGYF=  108 NGZF=  256
   ions per type =               1   1  32  32
   NGX,Y,Z   is equivalent  to a cutoff of  10.64, 10.64,  9.98 a.u.
   NGXF,Y,Z  is equivalent  to a cutoff of  21.27, 21.27, 19.95 a.u.

 SYSTEM =  MgO-rocksalt                            
 POSCAR =   C  O Mg  O                             

 Startparameter for this run:
   NWRITE =      2    write-flag & timer
   PREC   = normal    normal or accurate (medium, high low for compatibility)
   ISTART =      0    job   : 0-new  1-cont  2-samecut
   ICHARG =      2    charge: 1-file 2-atom 10-const
   ISPIN  =      1    spin polarized calculation?
   LNONCOLLINEAR =      F non collinear calculations
   LSORBIT =      F    spin-orbit coupling
   INIWAV =      1    electr: 0-lowe 1-rand  2-diag
   LASPH  =      T    aspherical Exc in radial PAW
 Electronic Relaxation 1
   ENCUT  =  600.0 eV  44.10 Ry    6.64 a.u.  16.86 16.86 42.60*2*pi/ulx,y,z
   ENINI  =  600.0     initial cutoff
   ENAUG  =  758.8 eV  augmentation charge cutoff
   NELM   =    200;   NELMIN=  8; NELMDL= -5     # of ELM steps 
   EDIFF  = 0.1E-05   stopping-criterion for ELM
   LREAL  =      F    real-space projection
   NLSPLINE    = F    spline interpolate recip. space projectors
   LCOMPAT=      F    compatible to vasp.4.4
   GGA_COMPAT  = T    GGA compatible to vasp.4.4-vasp.4.6
   LMAXPAW     = -100 max onsite density
   LMAXMIX     =    2 max onsite mixed and CHGCAR
   VOSKOWN=      0    Vosko Wilk Nusair interpolation
   ROPT   =    0.00000   0.00000   0.00000   0.00000
 Ionic relaxation
   EDIFFG = -.1E-01   stopping-criterion for IOM
   NSW    =      0    number of steps for IOM
   NBLOCK =      1;   KBLOCK =      1    inner block; outer block 
   IBRION =     -1    ionic relax: 0-MD 1-quasi-New 2-CG
   NFREE  =      0    steps in history (QN), initial steepest desc. (CG)
   ISIF   =      2    stress and relaxation
   IWAVPR =     10    prediction:  0-non 1-charg 2-wave 3-comb
   ISYM   =      2    0-nonsym 1-usesym 2-fastsym
   LCORR  =      T    Harris-Foulkes like correction to forces

   POTIM  = 0.5000    time-step for ionic-motion
   TEIN   =    0.0    initial temperature
   TEBEG  =    0.0;   TEEND  =   0.0 temperature during run
   SMASS  =  -3.00    Nose mass-parameter (am)
   estimated Nose-frequenzy (Omega)   =  0.10E-29 period in steps = 0.13E+47 mass=  -0.163E-26a.u.
   SCALEE = 1.0000    scale energy and forces
   NPACO  =    256;   APACO  = 10.0  distance and # of slots for P.C.
   PSTRESS=    0.0 pullay stress

  Mass of Ions in am
   POMASS =  12.01 16.00 24.30 16.00
  Ionic Valenz
   ZVAL   =   4.00  6.00  8.00  6.00
  Atomic Wigner-Seitz radii
   RWIGS  =  -1.00 -1.00 -1.00 -1.00
  virtual crystal weights 
   VCA    =   1.00  1.00  1.00  1.00
   NELECT =     458.0000    total number of electrons
   NUPDOWN=      -1.0000    fix difference up-down

 DOS related values:
   EMIN   =  10.00;   EMAX   =-10.00  energy-range for DOS
   EFERMI =   0.00
   ISMEAR =     0;   SIGMA  =   0.05  broadening in eV -4-tet -1-fermi 0-gaus

 Electronic relaxation 2 (details)
   IALGO  =     58    algorithm
   LDIAG  =      T    sub-space diagonalisation (order eigenvalues)
   LSUBROT=      F    optimize rotation matrix (better conditioning)
   TURBO    =      0    0=normal 1=particle mesh
   IRESTART =      0    0=no restart 2=restart with 2 vectors
   NREBOOT  =      0    no. of reboots
   NMIN     =      0    reboot dimension
   EREF     =   0.00    reference energy to select bands
   IMIX   =      4    mixing-type and parameters
     AMIX     =   0.40;   BMIX     =  1.00
     AMIX_MAG =   1.60;   BMIX_MAG =  1.00
     AMIN     =   0.10
     WC   =   100.;   INIMIX=   1;  MIXPRE=   1;  MAXMIX= -45

 Intra band minimization:
   WEIMIN = 0.0000     energy-eigenvalue tresh-hold
   EBREAK =  0.78E-09  absolut break condition
   DEPER  =   0.30     relativ break condition  

   TIME   =   0.40     timestep for ELM

  volume/ion in A,a.u.               =      23.03       155.40
  Fermi-wavevector in a.u.,A,eV,Ry     =   1.097571  2.074108 16.390423  1.204662
  Thomas-Fermi vector in A             =   2.233933

 Write flags
   LWAVE        =      F    write WAVECAR
   LDOWNSAMPLE  =      F    k-point downsampling of WAVECAR
   LCHARG       =      F    write CHGCAR
   LVTOT        =      F    write LOCPOT, total local potential
   LVHAR        =      F    write LOCPOT, Hartree potential only
   LELF         =      F    write electronic localiz. function (ELF)
   LORBIT       =      0    0 simple, 1 ext, 2 COOP (PROOUT), +10 PAW based schemes


 Dipole corrections
   LMONO  =      F    monopole corrections only (constant potential shift)
   LDIPOL =      T    correct potential (dipole corrections)
   IDIPOL =      3    1-x, 2-y, 3-z, 4-all directions 
   EPSILON=  1.0000000 bulk dielectric constant

 Exchange correlation treatment:
   GGA     =    PE    GGA type
   LEXCH   =     8    internal setting for exchange type
   LIBXC   =     F    Libxc                    
   VOSKOWN =     0    Vosko Wilk Nusair interpolation
   LHFCALC =     F    Hartree Fock is set to
   LHFONE  =     F    Hartree Fock one center treatment
   AEXX    =    0.0000 exact exchange contribution

 Linear response parameters
   LEPSILON=     F    determine dielectric tensor
   LRPA    =     F    only Hartree local field effects (RPA)
   LNABLA  =     F    use nabla operator in PAW spheres
   LVEL    =     F    velocity operator in full k-point grid
   CSHIFT  =0.1000    complex shift for real part using Kramers Kronig
   OMEGAMAX=  -1.0    maximum frequency
   DEG_THRESHOLD= 0.2000000E-02 threshold for treating states as degnerate
   RTIME   =   -0.100 relaxation time in fs
  (WPLASMAI=    0.000 imaginary part of plasma frequency in eV, 0.658/RTIME)
   DFIELD  = 0.0000000 0.0000000 0.0000000 field for delta impulse in time

  Optional k-point grid parameters
   LKPOINTS_OPT  =     F    use optional k-point grid
   KPOINTS_OPT_MODE=     1    mode for optional k-point grid

 Orbital magnetization related:
   ORBITALMAG=     F  switch on orbital magnetization
   LCHIMAG   =     F  perturbation theory with respect to B field
   DQ        =  0.001000  dq finite difference perturbation B field
   LLRAUG    =     F  two centre corrections for induced B field



--------------------------------------------------------------------------------------------------------


 Static calculation
 charge density and potential will be updated during run
 non-spin polarized calculation
 Conjugate gradient for all bands (Freysoldt, et al. PRB 79, 241103 (2009))
 preconditioned conjugated gradient                                        
 perform sub-space diagonalisation
    before iterative eigenvector-optimisation
 modified Broyden-mixing scheme, WC =      100.0
 initial mixing is a Kerker type mixing with AMIX =  0.4000 and BMIX =      1.0000
 Hartree-type preconditioning will be used
 using additional bands           91
 reciprocal scheme for non local part
 use partial core corrections
 no Harris-corrections to forces 
 use gradient corrections 
 use of overlap-Matrix (Vanderbilt PP)
 Gauss-broadening in eV      SIGMA  =   0.05


--------------------------------------------------------------------------------------------------------


  energy-cutoff  :      600.00
  volume of cell :     1519.82
      direct lattice vectors                 reciprocal lattice vectors
     8.440984654  0.000000000  0.000000000     0.118469591  0.000000000  0.000000000
     0.000000000  8.440984654  0.000000000     0.000000000  0.118469591  0.000000000
     0.000000000  0.000000000 21.330738491     0.000000000  0.000000000  0.046880702

  length of vectors
     8.440984654  8.440984654 21.330738491     0.118469591  0.118469591  0.046880702



 k-points in units of 2pi/SCALE and weight: pymatgen v2020.8.13 with grid density = 
   0.00000000  0.00000000  0.00000000       0.250
   0.05923480  0.00000000  0.00000000       0.500
   0.05923480  0.05923480  0.00000000       0.250

 k-points in reciprocal lattice and weights: pymatgen v2020.8.13 with grid density = 
   0.00000000  0.00000000  0.00000000       0.250
   0.50000000  0.00000000  0.00000000       0.500
   0.50000000  0.50000000  0.00000000       0.250

 position of ions in fractional coordinates (direct lattice) 
   0.50000000  0.50000000  0.77110036
   0.50000000  0.50000000  0.82486408
   0.00000000  0.75000000  0.35160527
   0.25000000  0.00000000  0.35160527
   0.00000000  0.00000000  0.45053509
   0.25000000  0.75000000  0.45053509
   0.00000000  0.74993927  0.55008324
   0.25006073  0.00000000  0.55008324
   0.00000000  0.00000000  0.64874531
   0.24985833  0.75014167  0.64856955
   0.00000000  0.25000000  0.35160527
   0.25000000  0.50000000  0.35160527
   0.00000000  0.50000000  0.45053509
   0.25000000  0.25000000  0.45053509
   0.00000000  0.25006073  0.55008324
   0.25037838  0.50000000  0.55021952
   0.00000000  0.50000000  0.64861528
   0.24985833  0.24985833  0.64856955
   0.50000000  0.75000000  0.35160527
   0.75000000  0.00000000  0.35160527
   0.50000000  0.00000000  0.45053509
   0.75000000  0.75000000  0.45053509
   0.50000000  0.74962162  0.55021952
   0.74993927  0.00000000  0.55008324
   0.50000000  0.00000000  0.64861528
   0.75014167  0.75014167  0.64856955
   0.50000000  0.25000000  0.35160527
   0.75000000  0.50000000  0.35160527
   0.50000000  0.50000000  0.45053509
   0.75000000  0.25000000  0.45053509
   0.50000000  0.25037838  0.55021952
   0.74962162  0.50000000  0.55021952
   0.50000000  0.50000000  0.65061696
   0.75014167  0.24985833  0.64856955
   0.00000000  0.75000000  0.45053509
   0.25000000  0.00000000  0.45053509
   0.00000000  0.00000000  0.35160527
   0.25000000  0.75000000  0.35160527
   0.00000000  0.75021853  0.65097926
   0.24978147  0.00000000  0.65097926
   0.00000000  0.00000000  0.54980989
   0.24994577  0.75005423  0.54985911
   0.00000000  0.25000000  0.45053509
   0.25000000  0.50000000  0.45053509
   0.00000000  0.50000000  0.35160527
   0.25000000  0.25000000  0.35160527
   0.00000000  0.24978147  0.65097926
   0.24882271  0.50000000  0.65088287
   0.00000000  0.50000000  0.54976267
   0.24994577  0.24994577  0.54985911
   0.50000000  0.75000000  0.45053509
   0.75000000  0.00000000  0.45053509
   0.50000000  0.00000000  0.35160527
   0.75000000  0.75000000  0.35160527
   0.50000000  0.75117729  0.65088287
   0.75021853  0.00000000  0.65097926
   0.50000000  0.00000000  0.54976267
   0.75005423  0.75005423  0.54985911
   0.50000000  0.25000000  0.45053509
   0.75000000  0.50000000  0.45053509
   0.50000000  0.50000000  0.35160527
   0.75000000  0.25000000  0.35160527
   0.50000000  0.24882271  0.65088287
   0.75117729  0.50000000  0.65088287
   0.50000000  0.50000000  0.55023136
   0.75005423  0.24994577  0.54985911

 position of ions in cartesian coordinates  (Angst):
   4.22049233  4.22049233 16.44814023
   4.22049233  4.22049233 17.59496005
   0.00000000  6.33073849  7.50000000
   2.11024616  0.00000000  7.50000000
   0.00000000  0.00000000  9.61024616
   2.11024616  6.33073849  9.61024616
   0.00000000  6.33022585 11.73368172
   2.11075880  0.00000000 11.73368172
   0.00000000  0.00000000 13.83821654
   2.10905031  6.33193435 13.83446740
   0.00000000  2.11024616  7.50000000
   2.11024616  4.22049233  7.50000000
   0.00000000  4.22049233  9.61024616
   2.11024616  2.11024616  9.61024616
   0.00000000  2.11075880 11.73368172
   2.11344006  4.22049233 11.73658877
   0.00000000  4.22049233 13.83544293
   2.10905031  2.10905031 13.83446740
   4.22049233  6.33073849  7.50000000
   6.33073849  0.00000000  7.50000000
   4.22049233  0.00000000  9.61024616
   6.33073849  6.33073849  9.61024616
   4.22049233  6.32754460 11.73658877
   6.33022585  0.00000000 11.73368172
   4.22049233  0.00000000 13.83544293
   6.33193435  6.33193435 13.83446740
   4.22049233  2.11024616  7.50000000
   6.33073849  4.22049233  7.50000000
   4.22049233  4.22049233  9.61024616
   6.33073849  2.11024616  9.61024616
   4.22049233  2.11344006 11.73658877
   6.32754460  4.22049233 11.73658877
   4.22049233  4.22049233 13.87814023
   6.33193435  2.10905031 13.83446740
   0.00000000  6.33073849  9.61024616
   2.11024616  0.00000000  9.61024616
   0.00000000  0.00000000  7.50000000
   2.11024616  6.33073849  7.50000000
   0.00000000  6.33258312 13.88586825
   2.10840153  0.00000000 13.88586825
   0.00000000  0.00000000 11.72785099
   2.10978841  6.33119624 11.72890095
   0.00000000  2.11024616  9.61024616
   2.11024616  4.22049233  9.61024616
   0.00000000  4.22049233  7.50000000
   2.11024616  2.11024616  7.50000000
   0.00000000  2.10840153 13.88586825
   2.10030867  4.22049233 13.88381232
   0.00000000  4.22049233 11.72684365
   2.10978841  2.10978841 11.72890095
   4.22049233  6.33073849  9.61024616
   6.33073849  0.00000000  9.61024616
   4.22049233  0.00000000  7.50000000
   6.33073849  6.33073849  7.50000000
   4.22049233  6.34067598 13.88381232
   6.33258312  0.00000000 13.88586825
   4.22049233  0.00000000 11.72684365
   6.33119624  6.33119624 11.72890095
   4.22049233  2.11024616  9.61024616
   6.33073849  4.22049233  9.61024616
   4.22049233  4.22049233  7.50000000
   6.33073849  2.11024616  7.50000000
   4.22049233  2.10030867 13.88381232
   6.34067598  4.22049233 13.88381232
   4.22049233  4.22049233 11.73684118
   6.33119624  2.10978841 11.72890095



--------------------------------------------------------------------------------------------------------


 k-point   1 :   0.0000 0.0000 0.0000  plane waves:   50745
 k-point   2 :   0.5000 0.0000 0.0000  plane waves:   50798
 k-point   3 :   0.5000 0.5000 0.0000  plane waves:   50752

 maximum and minimum number of plane-waves per node :     12720    12632

 maximum number of plane-waves:     50798
 maximum index in each direction: 
   IXMAX=   16   IYMAX=   16   IZMAX=   42
   IXMIN=  -17   IYMIN=  -17   IZMIN=  -42


 parallel 3D FFT for wavefunctions:
    minimum data exchange during FFTs selected (reduces bandwidth)
 parallel 3D FFT for charge:
    minimum data exchange during FFTs selected (reduces bandwidth)


 total amount of memory used by VASP MPI-rank0    78528. kBytes
=======================================================================

   base      :      30000. kBytes
   nonl-proj :      29343. kBytes
   fftplans  :       3857. kBytes
   grid      :       5885. kBytes
   one-center:        137. kBytes
   wavefun   :       9306. kBytes

     INWAV:  cpu time      0.0001: real time      0.0000
 Broyden mixing: mesh for mixing (old mesh)
   NGX = 33   NGY = 33   NGZ = 85
  (NGX  =108   NGY  =108   NGZ  =256)
  gives a total of  92565 points

 initial charge density was supplied:
 charge density of overlapping atoms calculated
 number of electron     458.0000000 magnetization 
 keeping initial charge density in first step


--------------------------------------------------------------------------------------------------------


 Maximum index for augmentation-charges          334 (set IRDMAX)


--------------------------------------------------------------------------------------------------------


 First call to EWALD:  gamma=   0.154
 Maximum number of real-space cells 4x 4x 2
 Maximum number of reciprocal cells 2x 2x 5

    FEWALD:  cpu time      0.0072: real time      0.0072


--------------------------------------- Iteration      1(   1)  ---------------------------------------


    POTLOK:  cpu time      0.0446: real time      0.0456
    SETDIJ:  cpu time      0.1350: real time      0.1350
    TRIAL :  cpu time      5.4259: real time      5.5155
    CORREC:  cpu time      0.0011: real time      0.0013
    --------------------------------------------
      LOOP:  cpu time      5.6083: real time      5.7600

 eigenvalue-minimisations  :  2304
 total energy-change (2. order) : 0.4152947E+04  (-0.3066698E+05)
 number of electron     458.0000000 magnetization 
 augmentation part      458.0000000 magnetization 

 DIPCOR: dipole corrections for dipol
 direction  3 min pos     1,
 dipolmoment           0.000000      0.000000     -0.000345 electrons x Angstroem
 Tr[quadrupol]     -6318.707919

 energy correction for charged system         0.000000 eV
 dipol+quadrupol energy correction           -0.000000 eV
 added-field ion interaction          0.002843 eV  (added to PSCEN)


 Free energy of the ion-electron system (eV)
  ---------------------------------------------------
  alpha Z        PSCENC =       907.96694695
  Ewald energy   TEWEN  =    136848.91220783
  -Hartree energ DENC   =   -172948.48318882
  -exchange      EXHF   =         0.00000000
  -V(xc)+E(xc)   XCENC  =      1789.11529784
  PAW double counting   =     32310.01086261   -36145.30683839
  entropy T*S    EENTRO =        -0.02287430
  eigenvalues    EBANDS =     -6839.13457046
  atomic energy  EATOM  =     48229.88884101
  ---------------------------------------------------
  free energy    TOTEN  =      4152.94668427 eV

  energy without entropy =     4152.96955857  energy(sigma->0) =     4152.95812142


--------------------------------------------------------------------------------------------------------




--------------------------------------- Iteration      1(   2)  ---------------------------------------


    TRIAL :  cpu time      2.2493: real time      2.2495
    CORREC:  cpu time      0.0003: real time      0.0003
    --------------------------------------------
      LOOP:  cpu time      2.2545: real time      2.2643

 eigenvalue-minimisations  :  2304
 total energy-change (2. order) :-0.4287128E+04  (-0.4213363E+04)
 number of electron     458.0000000 magnetization 
 augmentation part      458.0000000 magnetization 

 DIPCOR: dipole corrections for dipol
 direction  3 min pos     1,
 dipolmoment           0.000000      0.000000     -0.000345 electrons x Angstroem
 Tr[quadrupol]     -6318.707919

 energy correction for charged system         0.000000 eV
 dipol+quadrupol energy correction           -0.000000 eV
 added-field ion interaction          0.002843 eV  (added to PSCEN)


 Free energy of the ion-electron system (eV)
  ---------------------------------------------------
  alpha Z        PSCENC =       907.96694695
  Ewald energy   TEWEN  =    136848.91220783
  -Hartree energ DENC   =   -172948.48318882
  -exchange      EXHF   =         0.00000000
  -V(xc)+E(xc)   XCENC  =      1789.11529784
  PAW double counting   =     32310.01086261   -36145.30683839
  entropy T*S    EENTRO =        -0.00000000
  eigenvalues    EBANDS =    -11126.28494524
  atomic energy  EATOM  =     48229.88884101
  ---------------------------------------------------
  free energy    TOTEN  =      -134.18081621 eV

  energy without entropy =     -134.18081621  energy(sigma->0) =     -134.18081621


--------------------------------------------------------------------------------------------------------




--------------------------------------- Iteration      1(   3)  ---------------------------------------


    TRIAL :  cpu time      2.3767: real time      2.3768
    CORREC:  cpu time      0.0003: real time      0.0003
    --------------------------------------------
      LOOP:  cpu time      2.3818: real time      2.3914

 eigenvalue-minimisations  :  2304
 total energy-change (2. order) :-0.3105533E+03  (-0.3084851E+03)
 number of electron     458.0000000 magnetization 
 augmentation part      458.0000000 magnetization 

 DIPCOR: dipole corrections for dipol
 direction  3 min pos     1,
 dipolmoment           0.000000      0.000000     -0.000345 electrons x Angstroem
 Tr[quadrupol]     -6318.707919

 energy correction for charged system         0.000000 eV
 dipol+quadrupol energy correction           -0.000000 eV
 added-field ion interaction          0.002843 eV  (added to PSCEN)


 Free energy of the ion-electron system (eV)
  ---------------------------------------------------
  alpha Z        PSCENC =       907.96694695
  Ewald energy   TEWEN  =    136848.91220783
  -Hartree energ DENC   =   -172948.48318882
  -exchange      EXHF   =         0.00000000
  -V(xc)+E(xc)   XCENC  =      1789.11529784
  PAW double counting   =     32310.01086261   -36145.30683839
  entropy T*S    EENTRO =        -0.00000000
  eigenvalues    EBANDS =    -11436.83819718
  atomic energy  EATOM  =     48229.88884101
  ---------------------------------------------------
  free energy    TOTEN  =      -444.73406815 eV

  energy without entropy =     -444.73406815  energy(sigma->0) =     -444.73406815


--------------------------------------------------------------------------------------------------------




--------------------------------------- Iteration      1(   4)  ---------------------------------------


    TRIAL :  cpu time      2.3625: real time      2.3626
    CORREC:  cpu time      0.0003: real time      0.0003
    --------------------------------------------
      LOOP:  cpu time      2.3768: real time      2.3772

 eigenvalue-minimisations  :  2368
 total energy-change (2. order) :-0.6021654E+01  (-0.6014544E+01)
 number of electron     458.0000000 magnetization 
 augmentation part      458.0000000 magnetization 

 DIPCOR: dipole corrections for dipol
 direction  3 min pos     1,
 dipolmoment           0.000000      0.000000     -0.000345 electrons x Angstroem
 Tr[quadrupol]     -6318.707919

 energy correction for charged system         0.000000 eV
 dipol+quadrupol energy correction           -0.000000 eV
 added-field ion interaction          0.002843 eV  (added to PSCEN)


 Free energy of the ion-electron system (eV)
  ---------------------------------------------------
  alpha Z        PSCENC =       907.96694695
  Ewald energy   TEWEN  =    136848.91220783
  -Hartree energ DENC   =   -172948.48318882
  -exchange      EXHF   =         0.00000000
  -V(xc)+E(xc)   XCENC  =      1789.11529784
  PAW double counting   =     32310.01086261   -36145.30683839
  entropy T*S    EENTRO =        -0.00000000
  eigenvalues    EBANDS =    -11442.85985141
  atomic energy  EATOM  =     48229.88884101
  ---------------------------------------------------
  free energy    TOTEN  =      -450.75572238 eV

  energy without entropy =     -450.75572238  energy(sigma->0) =     -450.75572238


--------------------------------------------------------------------------------------------------------




--------------------------------------- Iteration      1(   5)  ---------------------------------------


    TRIAL :  cpu time      2.6156: real time      2.6157
    CORREC:  cpu time      0.0003: real time      0.0003
    CHARGE:  cpu time      0.0764: real time      0.0766
    --------------------------------------------
      LOOP:  cpu time      2.6995: real time      2.7072

 eigenvalue-minimisations  :  2368
 total energy-change (2. order) :-0.7802694E-01  (-0.7802389E-01)
 number of electron     457.9999364 magnetization 
 augmentation part      159.5881174 magnetization 

 DIPCOR: dipole corrections for dipol
 direction  3 min pos     1,
 dipolmoment           0.000000      0.000000     -0.000345 electrons x Angstroem
 Tr[quadrupol]     -6318.707919

 energy correction for charged system         0.000000 eV
 dipol+quadrupol energy correction           -0.000000 eV
 added-field ion interaction          0.002843 eV  (added to PSCEN)


 Free energy of the ion-electron system (eV)
  ---------------------------------------------------
  alpha Z        PSCENC =       907.96694695
  Ewald energy   TEWEN  =    136848.91220783
  -Hartree energ DENC   =   -172948.48318882
  -exchange      EXHF   =         0.00000000
  -V(xc)+E(xc)   XCENC  =      1789.11529784
  PAW double counting   =     32310.01086261   -36145.30683839
  entropy T*S    EENTRO =        -0.00000000
  eigenvalues    EBANDS =    -11442.93787834
  atomic energy  EATOM  =     48229.88884101
  ---------------------------------------------------
  free energy    TOTEN  =      -450.83374932 eV

  energy without entropy =     -450.83374932  energy(sigma->0) =     -450.83374932


--------------------------------------------------------------------------------------------------------




--------------------------------------- Iteration      1(   6)  ---------------------------------------


    POTLOK:  cpu time      0.0300: real time      0.0300
    SETDIJ:  cpu time      0.1910: real time      0.1910
    TRIAL :  cpu time      0.6753: real time      0.6762
    CORREC:  cpu time      0.5317: real time      0.5318
    CHARGE:  cpu time      0.0554: real time      0.0554
    --------------------------------------------
      LOOP:  cpu time      1.4971: real time      1.4983

 eigenvalue-minimisations  :     0
 total energy-change (2. order) : 0.1740759E+03  (-0.9610848E+02)
 number of electron     457.9999256 magnetization 
 augmentation part      156.6863750 magnetization 

 DIPCOR: dipole corrections for dipol
 direction  3 min pos     1,
 dipolmoment           0.000000      0.000000      0.168529 electrons x Angstroem
 Tr[quadrupol]     -6355.683836

 energy correction for charged system         0.000000 eV
 dipol+quadrupol energy correction           -0.001691 eV
 added-field ion interaction         -1.390488 eV  (added to PSCEN)


 Free energy of the ion-electron system (eV)
  ---------------------------------------------------
  alpha Z        PSCENC =       904.27420128
  Ewald energy   TEWEN  =    136848.91220783
  -Hartree energ DENC   =   -176813.49665433
  -exchange      EXHF   =         0.00000000
  -V(xc)+E(xc)   XCENC  =      1914.75035919
  PAW double counting   =     36989.58198622   -40779.47402995
  entropy T*S    EENTRO =        -0.00000000
  eigenvalues    EBANDS =     -7571.19480257
  atomic energy  EATOM  =     48229.88884101
  ---------------------------------------------------
  free energy    TOTEN  =      -276.75789132 eV

  energy without entropy =     -276.75789132  energy(sigma->0) =     -276.75789132


--------------------------------------------------------------------------------------------------------




--------------------------------------- Iteration      1(   7)  ---------------------------------------


    POTLOK:  cpu time      0.0304: real time      0.0304
    SETDIJ:  cpu time      0.1883: real time      0.1883
    TRIAL :  cpu time      0.6029: real time      0.6029
    CORREC:  cpu time      0.5183: real time      0.5183
    CHARGE:  cpu time      0.0559: real time      0.0559
    --------------------------------------------
      LOOP:  cpu time      1.4020: real time      1.4101

 eigenvalue-minimisations  :     0
 total energy-change (2. order) :-0.9651167E+02  (-0.6890156E+01)
 number of electron     457.9999247 magnetization 
 augmentation part      154.8084062 magnetization 

 DIPCOR: dipole corrections for dipol
 direction  3 min pos     1,
 dipolmoment           0.000000      0.000000      0.152676 electrons x Angstroem
 Tr[quadrupol]     -6361.023461

 energy correction for charged system         0.000000 eV
 dipol+quadrupol energy correction           -0.001388 eV
 added-field ion interaction         -1.259687 eV  (added to PSCEN)


 Free energy of the ion-electron system (eV)
  ---------------------------------------------------
  alpha Z        PSCENC =       906.28919893
  Ewald energy   TEWEN  =    136848.91220783
  -Hartree energ DENC   =   -174974.09100602
  -exchange      EXHF   =         0.00000000
  -V(xc)+E(xc)   XCENC  =      1846.06889052
  PAW double counting   =     35880.67202617   -39739.62435524
  entropy T*S    EENTRO =        -0.00000000
  eigenvalues    EBANDS =     -9371.38536140
  atomic energy  EATOM  =     48229.88884101
  ---------------------------------------------------
  free energy    TOTEN  =      -373.26955820 eV

  energy without entropy =     -373.26955820  energy(sigma->0) =     -373.26955820


--------------------------------------------------------------------------------------------------------




--------------------------------------- Iteration      1(   8)  ---------------------------------------


    POTLOK:  cpu time      0.0297: real time      0.0297
    SETDIJ:  cpu time      0.1901: real time      0.1901
    TRIAL :  cpu time      0.6045: real time      0.6045
    CORREC:  cpu time      0.5197: real time      0.5198
    CHARGE:  cpu time      0.0563: real time      0.0563
    --------------------------------------------
      LOOP:  cpu time      1.4150: real time      1.4152

 eigenvalue-minimisations  :     0
 total energy-change (2. order) :-0.6906047E+01  (-0.4339143E+01)
 number of electron     457.9999229 magnetization 
 augmentation part      154.9266213 magnetization 

 DIPCOR: dipole corrections for dipol
 direction  3 min pos     1,
 dipolmoment           0.000000      0.000000      0.098066 electrons x Angstroem
 Tr[quadrupol]     -6359.287894

 energy correction for charged system         0.000000 eV
 dipol+quadrupol energy correction           -0.000573 eV
 added-field ion interaction         -0.809118 eV  (added to PSCEN)


 Free energy of the ion-electron system (eV)
  ---------------------------------------------------
  alpha Z        PSCENC =       906.84840596
  Ewald energy   TEWEN  =    136848.91220783
  -Hartree energ DENC   =   -174866.86429798
  -exchange      EXHF   =         0.00000000
  -V(xc)+E(xc)   XCENC  =      1836.27955145
  PAW double counting   =     35766.08679060   -39555.54083880
  entropy T*S    EENTRO =        -0.00000000
  eigenvalues    EBANDS =     -9545.78626518
  atomic energy  EATOM  =     48229.88884101
  ---------------------------------------------------
  free energy    TOTEN  =      -380.17560510 eV

  energy without entropy =     -380.17560510  energy(sigma->0) =     -380.17560510


--------------------------------------------------------------------------------------------------------




--------------------------------------- Iteration      1(   9)  ---------------------------------------


    POTLOK:  cpu time      0.0294: real time      0.0294
    SETDIJ:  cpu time      0.1900: real time      0.1900
    TRIAL :  cpu time      0.6033: real time      0.6034
    CORREC:  cpu time      0.5179: real time      0.5179
    CHARGE:  cpu time      0.0556: real time      0.0556
    --------------------------------------------
      LOOP:  cpu time      1.4014: real time      1.4105

 eigenvalue-minimisations  :     0
 total energy-change (2. order) :-0.4255910E+01  (-0.1733628E+01)
 number of electron     457.9999229 magnetization 
 augmentation part      154.9441097 magnetization 

 DIPCOR: dipole corrections for dipol
 direction  3 min pos     1,
 dipolmoment           0.000000      0.000000      0.127956 electrons x Angstroem
 Tr[quadrupol]     -6351.907721

 energy correction for charged system         0.000000 eV
 dipol+quadrupol energy correction           -0.000975 eV
 added-field ion interaction         -1.055729 eV  (added to PSCEN)


 Free energy of the ion-electron system (eV)
  ---------------------------------------------------
  alpha Z        PSCENC =       907.29110911
  Ewald energy   TEWEN  =    136848.91220783
  -Hartree energ DENC   =   -174732.26256340
  -exchange      EXHF   =         0.00000000
  -V(xc)+E(xc)   XCENC  =      1835.64578885
  PAW double counting   =     35682.85244627   -39508.73610595
  entropy T*S    EENTRO =        -0.00000000
  eigenvalues    EBANDS =     -9648.02323885
  atomic energy  EATOM  =     48229.88884101
  ---------------------------------------------------
  free energy    TOTEN  =      -384.43151513 eV

  energy without entropy =     -384.43151513  energy(sigma->0) =     -384.43151513


--------------------------------------------------------------------------------------------------------




--------------------------------------- Iteration      1(  10)  ---------------------------------------


    POTLOK:  cpu time      0.0291: real time      0.0291
    SETDIJ:  cpu time      0.1900: real time      0.1900
    TRIAL :  cpu time      0.6035: real time      0.6035
    CORREC:  cpu time      0.5177: real time      0.5177
    CHARGE:  cpu time      0.0556: real time      0.0556
    --------------------------------------------
      LOOP:  cpu time      1.4099: real time      1.4102

 eigenvalue-minimisations  :     0
 total energy-change (2. order) :-0.1749973E+01  (-0.5929601E+00)
 number of electron     457.9999235 magnetization 
 augmentation part      154.9054775 magnetization 

 DIPCOR: dipole corrections for dipol
 direction  3 min pos     1,
 dipolmoment           0.000000      0.000000      0.152831 electrons x Angstroem
 Tr[quadrupol]     -6350.871977

 energy correction for charged system         0.000000 eV
 dipol+quadrupol energy correction           -0.001391 eV
 added-field ion interaction         -1.260968 eV  (added to PSCEN)


 Free energy of the ion-electron system (eV)
  ---------------------------------------------------
  alpha Z        PSCENC =       906.97661924
  Ewald energy   TEWEN  =    136848.91220783
  -Hartree energ DENC   =   -174554.26001990
  -exchange      EXHF   =         0.00000000
  -V(xc)+E(xc)   XCENC  =      1833.93277077
  PAW double counting   =     35575.82083698   -39409.63691371
  entropy T*S    EENTRO =        -0.00000000
  eigenvalues    EBANDS =     -9817.81583029
  atomic energy  EATOM  =     48229.88884101
  ---------------------------------------------------
  free energy    TOTEN  =      -386.18148807 eV

  energy without entropy =     -386.18148807  energy(sigma->0) =     -386.18148807


--------------------------------------------------------------------------------------------------------




--------------------------------------- Iteration      1(  11)  ---------------------------------------


    POTLOK:  cpu time      0.0293: real time      0.0293
    SETDIJ:  cpu time      0.1892: real time      0.1892
    TRIAL :  cpu time      0.6039: real time      0.6039
    CORREC:  cpu time      0.5181: real time      0.5182
    CHARGE:  cpu time      0.0563: real time      0.0563
    --------------------------------------------
      LOOP:  cpu time      1.4024: real time      1.4115

 eigenvalue-minimisations  :     0
 total energy-change (2. order) :-0.5941695E+00  (-0.2076221E+00)
 number of electron     457.9999240 magnetization 
 augmentation part      155.0009678 magnetization 

 DIPCOR: dipole corrections for dipol
 direction  3 min pos     1,
 dipolmoment           0.000000      0.000000      0.140119 electrons x Angstroem
 Tr[quadrupol]     -6351.652728

 energy correction for charged system         0.000000 eV
 dipol+quadrupol energy correction           -0.001169 eV
 added-field ion interaction         -1.156083 eV  (added to PSCEN)


 Free energy of the ion-electron system (eV)
  ---------------------------------------------------
  alpha Z        PSCENC =       906.73835726
  Ewald energy   TEWEN  =    136848.91220783
  -Hartree energ DENC   =   -174489.82653743
  -exchange      EXHF   =         0.00000000
  -V(xc)+E(xc)   XCENC  =      1832.95234696
  PAW double counting   =     35518.62952388   -39344.39732536
  entropy T*S    EENTRO =        -0.00000000
  eigenvalues    EBANDS =     -9889.67307168
  atomic energy  EATOM  =     48229.88884101
  ---------------------------------------------------
  free energy    TOTEN  =      -386.77565753 eV

  energy without entropy =     -386.77565753  energy(sigma->0) =     -386.77565753


--------------------------------------------------------------------------------------------------------




--------------------------------------- Iteration      1(  12)  ---------------------------------------


    POTLOK:  cpu time      0.0289: real time      0.0289
    SETDIJ:  cpu time      0.1903: real time      0.1903
    TRIAL :  cpu time      0.6030: real time      0.6030
    CORREC:  cpu time      0.5308: real time      0.5308
    CHARGE:  cpu time      0.0560: real time      0.0560
    --------------------------------------------
      LOOP:  cpu time      1.4144: real time      1.4238

 eigenvalue-minimisations  :     0
 total energy-change (2. order) :-0.2076100E+00  (-0.7176003E-01)
 number of electron     457.9999241 magnetization 
 augmentation part      155.1032188 magnetization 

 DIPCOR: dipole corrections for dipol
 direction  3 min pos     1,
 dipolmoment           0.000000      0.000000      0.128829 electrons x Angstroem
 Tr[quadrupol]     -6352.323545

 energy correction for charged system         0.000000 eV
 dipol+quadrupol energy correction           -0.000988 eV
 added-field ion interaction         -1.062933 eV  (added to PSCEN)


 Free energy of the ion-electron system (eV)
  ---------------------------------------------------
  alpha Z        PSCENC =       906.80494963
  Ewald energy   TEWEN  =    136848.91220783
  -Hartree energ DENC   =   -174513.38030609
  -exchange      EXHF   =         0.00000000
  -V(xc)+E(xc)   XCENC  =      1833.22634009
  PAW double counting   =     35506.48111083   -39330.65880309
  entropy T*S    EENTRO =        -0.00000000
  eigenvalues    EBANDS =     -9868.25760778
  atomic energy  EATOM  =     48229.88884101
  ---------------------------------------------------
  free energy    TOTEN  =      -386.98326756 eV

  energy without entropy =     -386.98326756  energy(sigma->0) =     -386.98326756


--------------------------------------------------------------------------------------------------------




--------------------------------------- Iteration      1(  13)  ---------------------------------------


    POTLOK:  cpu time      0.0292: real time      0.0292
    SETDIJ:  cpu time      0.1914: real time      0.1914
    TRIAL :  cpu time      0.6021: real time      0.6022
    CORREC:  cpu time      0.5213: real time      0.5213
    CHARGE:  cpu time      0.0564: real time      0.0564
    --------------------------------------------
      LOOP:  cpu time      1.4056: real time      1.4148

 eigenvalue-minimisations  :     0
 total energy-change (2. order) :-0.7177754E-01  (-0.3158151E-01)
 number of electron     457.9999241 magnetization 
 augmentation part      155.1369512 magnetization 

 DIPCOR: dipole corrections for dipol
 direction  3 min pos     1,
 dipolmoment           0.000000      0.000000      0.124080 electrons x Angstroem
 Tr[quadrupol]     -6352.720590

 energy correction for charged system         0.000000 eV
 dipol+quadrupol energy correction           -0.000917 eV
 added-field ion interaction         -1.023752 eV  (added to PSCEN)


 Free energy of the ion-electron system (eV)
  ---------------------------------------------------
  alpha Z        PSCENC =       906.90461334
  Ewald energy   TEWEN  =    136848.91220783
  -Hartree energ DENC   =   -174541.87622641
  -exchange      EXHF   =         0.00000000
  -V(xc)+E(xc)   XCENC  =      1833.52739780
  PAW double counting   =     35505.66269007   -39332.71931196
  entropy T*S    EENTRO =        -0.00000000
  eigenvalues    EBANDS =     -9837.35525678
  atomic energy  EATOM  =     48229.88884101
  ---------------------------------------------------
  free energy    TOTEN  =      -387.05504510 eV

  energy without entropy =     -387.05504510  energy(sigma->0) =     -387.05504510


--------------------------------------------------------------------------------------------------------




--------------------------------------- Iteration      1(  14)  ---------------------------------------


    POTLOK:  cpu time      0.0304: real time      0.0308
    SETDIJ:  cpu time      0.1906: real time      0.1906
    TRIAL :  cpu time      0.6053: real time      0.6054
    CORREC:  cpu time      0.5216: real time      0.5216
    CHARGE:  cpu time      0.0560: real time      0.0560
    --------------------------------------------
      LOOP:  cpu time      1.4114: real time      1.4188

 eigenvalue-minimisations  :     0
 total energy-change (2. order) :-0.3160277E-01  (-0.1480212E-01)
 number of electron     457.9999241 magnetization 
 augmentation part      155.1226245 magnetization 

 DIPCOR: dipole corrections for dipol
 direction  3 min pos     1,
 dipolmoment           0.000000      0.000000      0.122573 electrons x Angstroem
 Tr[quadrupol]     -6353.036412

 energy correction for charged system         0.000000 eV
 dipol+quadrupol energy correction           -0.000894 eV
 added-field ion interaction         -1.011314 eV  (added to PSCEN)


 Free energy of the ion-electron system (eV)
  ---------------------------------------------------
  alpha Z        PSCENC =       906.94510248
  Ewald energy   TEWEN  =    136848.91220783
  -Hartree energ DENC   =   -174554.69525061
  -exchange      EXHF   =         0.00000000
  -V(xc)+E(xc)   XCENC  =      1833.53777678
  PAW double counting   =     35505.31781446   -39333.85155369
  entropy T*S    EENTRO =        -0.00000000
  eigenvalues    EBANDS =     -9823.14158612
  atomic energy  EATOM  =     48229.88884101
  ---------------------------------------------------
  free energy    TOTEN  =      -387.08664787 eV

  energy without entropy =     -387.08664787  energy(sigma->0) =     -387.08664787


--------------------------------------------------------------------------------------------------------




--------------------------------------- Iteration      1(  15)  ---------------------------------------


    POTLOK:  cpu time      0.0291: real time      0.0291
    SETDIJ:  cpu time      0.1890: real time      0.1890
    TRIAL :  cpu time      0.6040: real time      0.6041
    CORREC:  cpu time      0.5185: real time      0.5185
    CHARGE:  cpu time      0.0559: real time      0.0559
    --------------------------------------------
      LOOP:  cpu time      1.4106: real time      1.4108

 eigenvalue-minimisations  :     0
 total energy-change (2. order) :-0.1481227E-01  (-0.6172809E-02)
 number of electron     457.9999240 magnetization 
 augmentation part      155.1092428 magnetization 

 DIPCOR: dipole corrections for dipol
 direction  3 min pos     1,
 dipolmoment           0.000000      0.000000      0.122212 electrons x Angstroem
 Tr[quadrupol]     -6353.291584

 energy correction for charged system         0.000000 eV
 dipol+quadrupol energy correction           -0.000889 eV
 added-field ion interaction         -1.008335 eV  (added to PSCEN)


 Free energy of the ion-electron system (eV)
  ---------------------------------------------------
  alpha Z        PSCENC =       906.95296803
  Ewald energy   TEWEN  =    136848.91220783
  -Hartree energ DENC   =   -174563.49318435
  -exchange      EXHF   =         0.00000000
  -V(xc)+E(xc)   XCENC  =      1833.55448690
  PAW double counting   =     35508.58490940   -39336.38067163
  entropy T*S    EENTRO =        -0.00000000
  eigenvalues    EBANDS =     -9815.12101734
  atomic energy  EATOM  =     48229.88884101
  ---------------------------------------------------
  free energy    TOTEN  =      -387.10146014 eV

  energy without entropy =     -387.10146014  energy(sigma->0) =     -387.10146014


--------------------------------------------------------------------------------------------------------




--------------------------------------- Iteration      1(  16)  ---------------------------------------


    POTLOK:  cpu time      0.0290: real time      0.0290
    SETDIJ:  cpu time      0.1897: real time      0.1897
    TRIAL :  cpu time      0.5997: real time      0.5998
    CORREC:  cpu time      0.5182: real time      0.5182
    CHARGE:  cpu time      0.0562: real time      0.0562
    --------------------------------------------
      LOOP:  cpu time      1.3974: real time      1.4069

 eigenvalue-minimisations  :     0
[...]
    291       8.4454      0.00000
    292       8.4830      0.00000
    293       8.5100      0.00000
    294       8.5212      0.00000
    295       8.5831      0.00000
    296       8.5898      0.00000
    297       8.6058      0.00000
    298       8.6151      0.00000
    299       8.6174      0.00000
    300       8.8077      0.00000
    301       8.8260      0.00000
    302       8.9120      0.00000
    303       8.9126      0.00000
    304       9.1400      0.00000
    305       9.3332      0.00000
    306       9.4064      0.00000
    307       9.4068      0.00000
    308       9.4800      0.00000
    309       9.5479      0.00000
    310       9.5558      0.00000
    311       9.5608      0.00000
    312       9.7571      0.00000
    313       9.7941      0.00000
    314       9.8438      0.00000
    315       9.8658      0.00000
    316       9.8667      0.00000
    317      10.2466      0.00000
    318      10.2692      0.00000
    319      10.3546      0.00000
    320      10.3624      0.00000


--------------------------------------------------------------------------------------------------------


 soft charge-density along one line, spin component           1
         0         1         2         3         4         5         6         7         8         9
 total charge-density along one line

 pseudopotential strength for first ion, spin component:           1
 10.229  13.603   0.000   0.032   0.000  -0.000  -0.096  -0.000
 13.603  18.090   0.000   0.042   0.000  -0.000  -0.126  -0.000
  0.000   0.000  -4.368  -0.000   0.000   8.557   0.000  -0.000
  0.032   0.042  -0.000  -4.406   0.000   0.000   8.613  -0.000
  0.000   0.000   0.000   0.000  -4.368  -0.000  -0.000   8.557
 -0.000  -0.000   8.557   0.000  -0.000 -18.900  -0.000   0.000
 -0.096  -0.126   0.000   8.613  -0.000  -0.000 -18.975   0.000
 -0.000  -0.000  -0.000  -0.000   8.557   0.000   0.000 -18.900
 total augmentation occupancy for first ion, spin component:           1
  7.244  -3.276   0.000   2.035   0.000   0.000   0.372  -0.000
 -3.276   1.871   0.000  -1.553   0.000   0.000  -0.225   0.000
  0.000   0.000   0.833   0.000   0.000   0.059  -0.000   0.000
  2.035  -1.553   0.000   2.220   0.000   0.000   0.209  -0.000
  0.000   0.000   0.000   0.000   0.833   0.000   0.000   0.059
  0.000   0.000   0.059   0.000   0.000   0.004  -0.000   0.000
  0.372  -0.225  -0.000   0.209   0.000  -0.000   0.029   0.000
 -0.000   0.000   0.000  -0.000   0.059   0.000   0.000   0.004


------------------------ aborting loop because EDIFF is reached ----------------------------------------


    FORLOC:  cpu time      0.0040: real time      0.0040
    FORNL :  cpu time      0.4215: real time      0.4216
    STRESS:  cpu time      1.3367: real time      1.3370
    FORCOR:  cpu time      0.0267: real time      0.0267
    OFIELD:  cpu time      0.0001: real time      0.0001

  DFT-D2 method for vdW energy calculation
  -------------------------------------------------------------------

  Parameters of vdW forcefield:
         C6(Jnm^6/mol)     R0(A)
   -----------------------------
   C        1.750          1.452
   O        0.700          1.342
   Mg       0.630          1.243
   O        0.700          1.342

  vdW correction parametrized for the method pbe       

  IVDW =   1
  VDW_RADIUS =    50.000 A
  VDW_S6 =     0.750
  VDW_SR =     1.000
  VDW_D =    20.000
  LVDW_EWALD = F

  Number of pair interactions contributing to vdW energy:  768274
  Edisp (eV):   -3.68870
    FORVDW:  cpu time      0.1830: real time      0.1830

  FORCE on cell =-STRESS in cart. coord.  units (eV):
  Direction    XX          YY          ZZ          XY          YZ          ZX
  --------------------------------------------------------------------------------------
  Alpha Z   907.96410   907.96410   907.96410
  Ewald  157351.34202157351.34202************     0.00000     0.00000    -0.00000
  Hartree167761.37643167761.37643************    -0.00000    -0.00000    -0.00000
  E(xc)   -2500.73332 -2500.73332 -2504.67042    -0.00000     0.00000    -0.00000
  Local  ************************334704.21864    -0.00000     0.00000    -0.00000
  n-local -2830.33273 -2831.15716 -2862.06544    -0.00000    -0.00000     0.00000
  augment  1054.02397  1054.02397  1044.17911     0.00000    -0.00000    -0.00000
  Kinetic  7493.61326  7496.23641  7517.86459     0.00001     0.00001    -0.00001
  Fock        0.00000     0.00000     0.00000     0.00000     0.00000     0.00000
  vdW        -5.36830    -5.36830    -4.42790    -0.00000    -0.00000    -0.00000
  -------------------------------------------------------------------------------------
  Total     -24.19888   -24.19888    -0.98828     0.00000     0.00000     0.00000
  in kB     -25.51019   -25.51019    -1.04184     0.00000     0.00000     0.00000
  external pressure =      -17.35 kB  Pullay stress =        0.00 kB


 VOLUME and BASIS-vectors are now :
 -----------------------------------------------------------------------------
  energy-cutoff  :      600.00
  volume of cell :     1519.82
      direct lattice vectors                 reciprocal lattice vectors
     8.440984654  0.000000000  0.000000000     0.118469591  0.000000000  0.000000000
     0.000000000  8.440984654  0.000000000     0.000000000  0.118469591  0.000000000
     0.000000000  0.000000000 21.330738491     0.000000000  0.000000000  0.046880702

  length of vectors
     8.440984654  8.440984654 21.330738491     0.118469591  0.118469591  0.046880702


 FORCES acting on ions:
    Electron-Ion                     Ewald-Force                    Non-Local-Force
 -----------------------------------------------------------------------------------------------
   0.105E-12 -.256E-12 -.809E+03   -.158E-13 -.444E-14 0.782E+03   -.124E-23 0.000E+00 0.269E+02
   0.411E-12 0.835E-12 -.141E+04   -.466E-14 0.888E-15 0.146E+04   0.000E+00 0.000E+00 -.598E+02
   -.442E-13 -.116E+00 0.208E+04   0.560E-13 0.117E+00 -.207E+04   0.000E+00 -.248E-03 -.704E+01
   0.116E+00 -.249E-12 0.208E+04   -.117E+00 0.671E-13 -.207E+04   0.248E-03 0.662E-23 -.704E+01
   -.615E-13 -.657E-12 0.712E+03   -.150E-10 0.150E-10 -.713E+03   0.000E+00 -.132E-22 0.501E+00
   0.390E+00 -.390E+00 0.713E+03   -.386E+00 0.386E+00 -.713E+03   -.248E-02 0.248E-02 0.527E+00
   -.466E-13 -.260E+01 -.643E+03   0.157E-11 0.259E+01 0.644E+03   -.132E-22 0.146E-01 -.161E+00
   0.260E+01 -.273E-12 -.643E+03   -.259E+01 -.151E-11 0.644E+03   -.146E-01 0.000E+00 -.161E+00
   -.433E-13 -.377E-12 -.200E+04   0.444E-12 -.416E-12 0.200E+04   0.000E+00 0.000E+00 0.597E+01
   0.165E+02 -.165E+02 -.198E+04   -.165E+02 0.165E+02 0.198E+04   0.855E-01 -.855E-01 0.605E+01
   -.297E-13 0.116E+00 0.208E+04   -.277E-12 -.117E+00 -.207E+04   0.000E+00 0.248E-03 -.704E+01
   0.108E+00 0.397E-12 0.208E+04   -.106E+00 0.131E-10 -.207E+04   -.175E-02 0.000E+00 -.704E+01
   -.534E-13 0.330E-12 0.713E+03   -.165E-10 0.000E+00 -.714E+03   -.662E-23 0.000E+00 0.465E+00
   0.390E+00 0.390E+00 0.713E+03   -.386E+00 -.386E+00 -.713E+03   -.248E-02 -.248E-02 0.527E+00
   -.479E-13 0.260E+01 -.643E+03   0.304E-11 -.259E+01 0.644E+03   0.132E-22 -.146E-01 -.161E+00
   0.354E+01 0.130E-11 -.637E+03   -.347E+01 0.178E-14 0.638E+03   -.759E-01 0.529E-22 -.267E+00
   -.254E-13 0.347E-12 -.199E+04   -.355E-13 -.995E-13 0.198E+04   0.132E-22 -.529E-22 0.597E+01
   0.165E+02 0.165E+02 -.198E+04   -.165E+02 -.165E+02 0.198E+04   0.855E-01 0.855E-01 0.605E+01
   0.926E-12 -.108E+00 0.208E+04   -.129E-10 0.106E+00 -.207E+04   -.331E-23 0.175E-02 -.704E+01
   -.116E+00 -.323E-12 0.208E+04   0.117E+00 0.471E-13 -.207E+04   -.248E-03 0.000E+00 -.704E+01
   0.867E-12 -.515E-12 0.713E+03   0.145E-11 0.150E-10 -.714E+03   0.000E+00 0.000E+00 0.465E+00
   -.390E+00 -.390E+00 0.713E+03   0.386E+00 0.386E+00 -.713E+03   0.248E-02 0.248E-02 0.527E+00
   0.837E-12 -.354E+01 -.637E+03   -.141E-11 0.347E+01 0.638E+03   0.960E-22 0.759E-01 -.267E+00
   -.260E+01 -.279E-12 -.643E+03   0.259E+01 -.156E-11 0.644E+03   0.146E-01 0.529E-22 -.161E+00
   0.917E-12 -.229E-12 -.199E+04   0.782E-13 -.355E-14 0.198E+04   0.265E-22 0.000E+00 0.597E+01
   -.165E+02 -.165E+02 -.198E+04   0.165E+02 0.165E+02 0.198E+04   -.855E-01 -.855E-01 0.605E+01
   0.933E-12 0.108E+00 0.208E+04   -.131E-10 -.106E+00 -.207E+04   -.662E-23 -.175E-02 -.704E+01
   -.108E+00 -.108E-12 0.208E+04   0.106E+00 0.131E-10 -.207E+04   0.175E-02 0.000E+00 -.704E+01
   0.907E-12 0.232E-11 0.713E+03   -.782E-13 0.355E-14 -.714E+03   -.529E-22 0.000E+00 0.601E+00
   -.390E+00 0.390E+00 0.713E+03   0.386E+00 -.386E+00 -.713E+03   0.248E-02 -.248E-02 0.527E+00
   0.829E-12 0.354E+01 -.637E+03   -.284E-13 -.347E+01 0.638E+03   0.000E+00 -.759E-01 -.267E+00
   -.354E+01 -.141E-11 -.637E+03   0.347E+01 0.000E+00 0.638E+03   0.759E-01 0.000E+00 -.267E+00
   0.886E-12 0.835E-12 -.193E+04   -.426E-13 -.391E-13 0.192E+04   0.000E+00 0.000E+00 0.450E+01
   -.165E+02 0.165E+02 -.198E+04   0.165E+02 -.165E+02 0.198E+04   -.855E-01 0.855E-01 0.605E+01
   -.933E-13 -.356E+00 0.534E+03   0.409E-13 0.351E+00 -.534E+03   0.265E-22 0.670E-02 -.909E-01
   0.356E+00 0.493E-12 0.534E+03   -.351E+00 0.391E-13 -.534E+03   -.670E-02 -.265E-22 -.909E-01
   -.540E-13 -.114E-11 0.156E+04   0.853E-11 -.844E-11 -.156E+04   0.000E+00 0.529E-22 0.349E+01
   0.835E-01 -.835E-01 0.156E+04   -.828E-01 0.828E-01 -.156E+04   -.100E-02 0.100E-02 0.349E+01
   -.283E-13 -.686E+01 -.152E+04   -.871E-12 0.681E+01 0.153E+04   0.132E-22 0.541E-01 -.503E+01
   0.686E+01 -.855E-12 -.152E+04   -.681E+01 0.881E-12 0.153E+04   -.541E-01 0.265E-22 -.503E+01
   -.621E-13 0.300E-12 -.479E+03   -.853E-13 0.639E-13 0.479E+03   0.265E-22 0.662E-23 0.256E+00
   0.227E+01 -.227E+01 -.474E+03   -.226E+01 0.226E+01 0.474E+03   -.598E-02 0.598E-02 0.325E+00
   -.730E-13 0.356E+00 0.534E+03   0.142E-13 -.351E+00 -.534E+03   0.132E-22 -.670E-02 -.909E-01
   0.304E+00 0.741E-12 0.534E+03   -.330E+00 -.764E-11 -.534E+03   0.357E-01 0.000E+00 -.111E+00
   -.692E-13 -.586E-12 0.156E+04   0.845E-11 -.796E-12 -.156E+04   0.000E+00 -.579E-23 0.349E+01
   0.835E-01 0.835E-01 0.156E+04   -.828E-01 -.828E-01 -.156E+04   -.100E-02 -.100E-02 0.349E+01
   -.395E-13 0.686E+01 -.152E+04   -.774E-12 -.681E+01 0.153E+04   0.000E+00 -.541E-01 -.503E+01
   0.208E+02 0.138E-11 -.149E+04   -.205E+02 0.810E-11 0.150E+04   -.261E+00 0.265E-22 -.500E+01
   -.550E-13 0.124E-11 -.474E+03   -.741E-11 0.711E-14 0.474E+03   0.331E-23 0.000E+00 0.282E+00
   0.227E+01 0.227E+01 -.474E+03   -.226E+01 -.226E+01 0.474E+03   -.598E-02 -.598E-02 0.325E+00
   0.350E-12 -.304E+00 0.534E+03   0.764E-11 0.330E+00 -.534E+03   0.000E+00 -.357E-01 -.111E+00
   -.356E+00 0.448E-12 0.534E+03   0.351E+00 0.142E-13 -.534E+03   0.670E-02 0.265E-22 -.909E-01
   0.377E-12 0.815E-12 0.156E+04   0.845E-12 -.846E-11 -.156E+04   0.000E+00 0.529E-22 0.349E+01
   -.835E-01 -.835E-01 0.156E+04   0.828E-01 0.828E-01 -.156E+04   0.100E-02 0.100E-02 0.349E+01
   0.357E-12 -.208E+02 -.149E+04   -.816E-11 0.205E+02 0.150E+04   0.265E-22 0.261E+00 -.500E+01
   -.686E+01 -.808E-12 -.152E+04   0.681E+01 0.924E-12 0.153E+04   0.541E-01 -.132E-22 -.503E+01
   0.333E-12 0.370E-12 -.474E+03   -.711E-14 0.738E-11 0.474E+03   0.000E+00 0.000E+00 0.282E+00
   -.227E+01 -.227E+01 -.474E+03   0.226E+01 0.226E+01 0.474E+03   0.598E-02 0.598E-02 0.325E+00
   0.318E-12 0.304E+00 0.534E+03   0.763E-11 -.330E+00 -.534E+03   0.165E-23 0.357E-01 -.111E+00
   -.304E+00 0.168E-11 0.534E+03   0.330E+00 -.769E-11 -.534E+03   -.357E-01 0.331E-23 -.111E+00
   0.361E-12 0.191E-11 0.156E+04   0.824E-12 -.838E-12 -.156E+04   0.000E+00 0.000E+00 0.348E+01
   -.835E-01 0.835E-01 0.156E+04   0.828E-01 -.828E-01 -.156E+04   0.100E-02 -.100E-02 0.349E+01
   0.361E-12 0.208E+02 -.149E+04   -.820E-11 -.205E+02 0.150E+04   0.265E-22 -.261E+00 -.500E+01
   -.208E+02 -.123E-11 -.149E+04   0.205E+02 0.819E-11 0.150E+04   0.261E+00 0.265E-22 -.500E+01
   0.296E-12 0.539E-13 -.475E+03   -.497E-13 0.426E-13 0.475E+03   -.331E-23 0.662E-23 -.188E+00
   -.227E+01 0.227E+01 -.474E+03   0.226E+01 -.226E+01 0.474E+03   0.598E-02 -.598E-02 0.325E+00
 -----------------------------------------------------------------------------------------------
   0.264E-10 0.159E-10 0.513E+02   0.204E-12 -.173E-13 0.182E-11   -.815E-16 0.867E-18 -.513E+02


 POSITION                                       TOTAL-FORCE (eV/Angst)
 -----------------------------------------------------------------------------------
      4.22049      4.22049     16.44814         0.000000     -0.000000      0.279821
      4.22049      4.22049     17.59496         0.000000     -0.000000     -0.407386
      0.00000      6.33074      7.50000         0.000000      0.000048      0.350001
      2.11025      0.00000      7.50000        -0.000048      0.000000      0.350001
      0.00000      0.00000      9.61025         0.000000      0.000000      0.030983
      2.11025      6.33074      9.61025         0.001477     -0.001477      0.032885
      0.00000      6.33023     11.73368         0.000000      0.000363      0.035042
      2.11076      0.00000     11.73368        -0.000363      0.000000      0.035042
      0.00000      0.00000     13.83822         0.000000      0.000000     -0.014922
      2.10905      6.33193     13.83447        -0.005114      0.005114     -0.014503
      0.00000      2.11025      7.50000         0.000000     -0.000048      0.350001
      2.11025      4.22049      7.50000         0.000571      0.000000      0.350056
      0.00000      4.22049      9.61025         0.000000      0.000000      0.039543
      2.11025      2.11025      9.61025         0.001477      0.001477      0.032885
      0.00000      2.11076     11.73368         0.000000     -0.000363      0.035042
      2.11344      4.22049     11.73659        -0.005378      0.000000      0.037990
      0.00000      4.22049     13.83544         0.000000     -0.000000     -0.016681
      2.10905      2.10905     13.83447        -0.005114     -0.005114     -0.014503
      4.22049      6.33074      7.50000         0.000000     -0.000571      0.350056
      6.33074      0.00000      7.50000         0.000048      0.000000      0.350001
      4.22049      0.00000      9.61025         0.000000      0.000000      0.039543
      6.33074      6.33074      9.61025        -0.001477     -0.001477      0.032885
      4.22049      6.32754     11.73659         0.000000      0.005378      0.037990
      6.33023      0.00000     11.73368         0.000363      0.000000      0.035042
      4.22049      0.00000     13.83544         0.000000      0.000000     -0.016681
      6.33193      6.33193     13.83447         0.005114      0.005114     -0.014503
      4.22049      2.11025      7.50000         0.000000      0.000571      0.350056
      6.33074      4.22049      7.50000        -0.000571      0.000000      0.350056
      4.22049      4.22049      9.61025         0.000000      0.000000      0.044834
      6.33074      2.11025      9.61025        -0.001477      0.001477      0.032885
      4.22049      2.11344     11.73659         0.000000     -0.005378      0.037990
      6.32754      4.22049     11.73659         0.005378      0.000000      0.037990
      4.22049      4.22049     13.87814         0.000000      0.000000      0.137700
      6.33193      2.10905     13.83447         0.005114     -0.005114     -0.014503
      0.00000      6.33074      9.61025         0.000000      0.001997      0.064333
      2.11025      0.00000      9.61025        -0.001997      0.000000      0.064333
      0.00000      0.00000      7.50000         0.000000      0.000000     -0.516861
      2.11025      6.33074      7.50000        -0.000283      0.000283     -0.516592
      0.00000      6.33258     13.88587         0.000000     -0.002243      0.018703
      2.10840      0.00000     13.88587         0.002243      0.000000      0.018703
      0.00000      0.00000     11.72785         0.000000      0.000000      0.018209
      2.10979      6.33120     11.72890         0.003359     -0.003359      0.011875
      0.00000      2.11025      9.61025         0.000000     -0.001997      0.064333
      2.11025      4.22049      9.61025         0.009323      0.000000      0.073291
      0.00000      4.22049      7.50000         0.000000      0.000000     -0.516692
      2.11025      2.11025      7.50000        -0.000283     -0.000283     -0.516592
      0.00000      2.10840     13.88587         0.000000      0.002243      0.018703
      2.10031      4.22049     13.88381         0.018423      0.000000      0.029048
      0.00000      4.22049     11.72684         0.000000      0.000000      0.016580
      2.10979      2.10979     11.72890         0.003359      0.003359      0.011875
      4.22049      6.33074      9.61025         0.000000     -0.009323      0.073291
      6.33074      0.00000      9.61025         0.001997     -0.000000      0.064333
      4.22049      0.00000      7.50000         0.000000      0.000000     -0.516692
      6.33074      6.33074      7.50000         0.000283      0.000283     -0.516592
      4.22049      6.34068     13.88381         0.000000     -0.018423      0.029048
      6.33258      0.00000     13.88587        -0.002243      0.000000      0.018703
      4.22049      0.00000     11.72684         0.000000      0.000000      0.016580
      6.33120      6.33120     11.72890        -0.003359     -0.003359      0.011875
      4.22049      2.11025      9.61025         0.000000      0.009323      0.073291
      6.33074      4.22049      9.61025        -0.009323      0.000000      0.073291
      4.22049      4.22049      7.50000         0.000000      0.000000     -0.517272
      6.33074      2.11025      7.50000         0.000283     -0.000283     -0.516592
      4.22049      2.10031     13.88381         0.000000      0.018423      0.029048
      6.34068      4.22049     13.88381        -0.018423      0.000000      0.029048
      4.22049      4.22049     11.73684         0.000000      0.000000      0.010883
      6.33120      2.10979     11.72890        -0.003359      0.003359      0.011875
 -----------------------------------------------------------------------------------
    total drift:                                0.000000      0.000000     -0.013933


--------------------------------------------------------------------------------------------------------



  FREE ENERGIE OF THE ION-ELECTRON SYSTEM (eV)
  ---------------------------------------------------
  free  energy   TOTEN  =      -390.80010725 eV

  energy  without entropy=     -390.80010725  energy(sigma->0) =     -390.80010725



--------------------------------------------------------------------------------------------------------


    POTLOK:  cpu time      0.2364: real time      0.2364


--------------------------------------------------------------------------------------------------------


     LOOP+:  cpu time     47.5350: real time     47.9042
    4ORBIT:  cpu time      0.0000: real time      0.0000

 total amount of memory used by VASP MPI-rank0    78528. kBytes
=======================================================================

   base      :      30000. kBytes
   nonl-proj :      29343. kBytes
   fftplans  :       3857. kBytes
   grid      :       5885. kBytes
   one-center:        137. kBytes
   wavefun   :       9306. kBytes

  
  
 General timing and accounting informations for this job:
 ========================================================
  
                  Total CPU time used (sec):       65.487
                            User time (sec):       63.486
                          System time (sec):        2.001
                         Elapsed time (sec):       70.362
  
                   Maximum memory used (kb):      176876.
                   Average memory used (kb):          N/A
  
                          Minor page faults:        32269
                          Major page faults:           49
                 Voluntary context switches:         7044
