 **********************************************************************
                          MRCC program system
 **********************************************************************
 
                              Written by
     Mihaly Kallay, Peter R. Nagy, David Mester, Laszlo Gyevi-Nagy,
        Jozsef Csoka, P. Bernat Szabo, Zoltan Rolik, Gyula Samu,
     Jozsef Csontos, Bence Hegely, Adam Ganyecz, Istvan Ladjanszki,
       Lorant Szegedy, Bence Ladoczki, Klara Petrov, Mate Farkas,
                    Pal D. Mezei, and Reka A. Horvath
 
        Department of Physical Chemistry and Materials Science
            Budapest University of Technology and Economics
                  Budapest P.O.Box 91, H-1521 Hungary
 
                              www.mrcc.hu
 
                      Release date: March 18, 2022

 ************************ 2023-04-26 01:19:18 *************************
 Executing minp...

 Reading input from MINP...
 
 Input file:
 
calc=DF-MP2
scftype=rhf
verbosity=3
mem=200GB
symm=off
unit=angs
scfiguess=small
scfmaxit=1000
scfalg=locfit1



charge=0
core=2

basis=special
aug-cc-pVQZ
aug-cc-pVQZ
bse_CVQZ
aug-cc-pVQZ
aug-cc-pVQZ
aug-cc-pVQZ
aug-cc-pVQZ
aug-cc-pVQZ
bse_CVQZ
bse_CVQZ
bse_CVQZ
bse_CVQZ
aug-cc-pVQZ
aug-cc-pVQZ
aug-cc-pVQZ
aug-cc-pVQZ
aug-cc-pVQZ
aug-cc-pVQZ
aug-cc-pVQZ
aug-cc-pVQZ
aug-cc-pVQZ
aug-cc-pVQZ
aug-cc-pVQZ
aug-cc-pVQZ

basis_sm=special
def2-SVP
def2-SVP
def2-SVP
def2-SVP
def2-SVP
def2-SVP
def2-SVP
def2-SVP
def2-SVP
def2-SVP
def2-SVP
def2-SVP
def2-SVP
def2-SVP
def2-SVP
def2-SVP
def2-SVP
def2-SVP
def2-SVP
def2-SVP
def2-SVP
def2-SVP
def2-SVP
def2-SVP

dfbasis_scf=special
def2-QZVPP-RI-JK
def2-QZVPP-RI-JK
def2-QZVPP-RI-JK
def2-QZVPP-RI-JK
def2-QZVPP-RI-JK
def2-QZVPP-RI-JK
def2-QZVPP-RI-JK
def2-QZVPP-RI-JK
def2-QZVPP-RI-JK
def2-QZVPP-RI-JK
def2-QZVPP-RI-JK
def2-QZVPP-RI-JK
def2-QZVPP-RI-JK
def2-QZVPP-RI-JK
def2-QZVPP-RI-JK
def2-QZVPP-RI-JK
def2-QZVPP-RI-JK
def2-QZVPP-RI-JK
def2-QZVPP-RI-JK
def2-QZVPP-RI-JK
def2-QZVPP-RI-JK
def2-QZVPP-RI-JK
def2-QZVPP-RI-JK
def2-QZVPP-RI-JK

dfbasis_cor=special
aug-cc-pVQZ-RI
aug-cc-pVQZ-RI
bse_CVQZ_mp2fit
aug-cc-pVQZ-RI
aug-cc-pVQZ-RI
aug-cc-pVQZ-RI
aug-cc-pVQZ-RI
aug-cc-pVQZ-RI
bse_CVQZ_mp2fit
bse_CVQZ_mp2fit
bse_CVQZ_mp2fit
bse_CVQZ_mp2fit
aug-cc-pVQZ-RI
aug-cc-pVQZ-RI
aug-cc-pVQZ-RI
aug-cc-pVQZ-RI
aug-cc-pVQZ-RI
aug-cc-pVQZ-RI
aug-cc-pVQZ-RI
aug-cc-pVQZ-RI
aug-cc-pVQZ-RI
aug-cc-pVQZ-RI
aug-cc-pVQZ-RI
aug-cc-pVQZ-RI

ecp=special
none
none
none
none
none
none
none
none
none
none
none
none
none
none
none
none
none
none
none
none
none
none
none
none

unit=angs
geom=xyz
24
C1 O1 Mg5 O17 ECP53
C     0.00000000000    0.00000000000    2.43329433571
O     0.00000000000    0.00000000000    3.58011415037
Mg    0.00000000000    0.00000000000   -0.00772802266
O    -2.12018425659    0.00000000000   -0.00205593177
O     0.00000000000    2.12018425659   -0.00205593177
O     2.12018425659    0.00000000000   -0.00205593177
O     0.00000000000   -2.12018425659   -0.00205593177
O     0.00000000000    0.00000000000   -2.14902768389
Mg   -2.11144262254    2.11144262254   -0.05140086690
Mg    2.11144262254    2.11144262254   -0.05140086690
Mg    2.11144262254   -2.11144262254   -0.05140086690
Mg   -2.11144262254   -2.11144262254   -0.05140086690
O    -2.11070451449    2.11070451449   -2.15696791928
O     2.11070451449    2.11070451449   -2.15696791928
O     2.11070451449   -2.11070451449   -2.15696791928
O    -2.11070451449   -2.11070451449   -2.15696791928
O    -4.22049352791    2.11209139723    0.00000000000
O    -2.11209139723    4.22049352791    0.00000000000
O     2.11209139723    4.22049352791    0.00000000000
O     4.22049352791    2.11209139723    0.00000000000
O     4.22049352791   -2.11209139723    0.00000000000
O     2.11209139723   -4.22049352791    0.00000000000
O    -2.11209139723   -4.22049352791    0.00000000000
O    -4.22049352791   -2.11209139723    0.00000000000

ghost=serialno
3-24

 
 
 Checking keyword combinations...
 
 Keywords:
 
 active=none
 agrid=ld0006-ld0590
 agrid_pssp=ld0006-ld0194
 agrid_pssp_sm=ld0006-ld0074
 basis=special
 basis_sm=special
 basopt=off
 bfbasis=none
 bfgsmem=10
 bfgstol=1.0d-3
 bpcompo=0.985
 bpcompv=0.98
 bpdfo=0.985
 bpocc=0.985
 bppdo=0.985
 bppdv=0.98
 bpedo=0.985
 bpedv=0.98
 calc=mp2
 ccmaxit=50
 ccprog=mrcc
 ccsdalg=disk
 ccsdmkl=seq
 ccsdrest=off
 ccsdthreads=2
 cctol=6
 charge=0
 cialg=disk
 ciguess=off
 cmpgrp=auto
 comprest=off
 core=2
 corembed=off
 csapprox=off
 cvs=off
 dboc=off
 delocsomofact=
 dendec=cholesky
 dens=0
 dfalg=lineq
 dfbasis_cab=none
 dfbasis_cor=special
 dfbasis_scf=special
 dfbasis_scf_sm=special
 dfintran=drpa
 dft=off
 dhexc=adc(2)
 diag=david
 docc=
 domrad=10.d0
 drpaalg=fit
 dual=off
 dual_df=off
 ecp=special
 edisp=off
 edisp_embed=off
 embed=off
 etemp=300
 epert=none
 eps=
 espcharge=off
 excrad=1.0
 excrad_fin=0.100000000D-02
 fitting=coulomb
 fmm=off
 fmmord=8
 freq=off
 gamma=1.d0
 gauss=spher
 geom=xyz
 gopt=off
 ghost=serialno
 gtol=7
 grdens=off
 gridbatch_cos=2000
 grtol=10
 guido_ct=off
 hamilton=dc
 iface=none
 intalg=auto
 itol=10
 laptol=1.d-2
 lccoporder=trffirst
 lcorthr=normal
 lccrest=off
 lmp2dens=on
 lnoepso=0.d0
 lnoepsv=1e-6
 boysalg=jacobi
 localcc=off
 localcorrsymm=off
 locintrf=disk
 mact=
 maxact=off
 maxdim=100
 maxex=0
 maxmicroit=100
 mcscfiguess=hf
 mem=200gb
 mmprog=
 molden=on
 mpitasks=1
 mulmet=0
 mult=
 nacto=0
 nactv=0
 naf_amp=1.d-2
 naf_cor=off
 naf_scf=off
 nafalg=albe
 naftyp=
 nchol=auto
 ndeps=1e-3
 nstate=1
 nsing=0
 nto=off
 ntrip=0
 occ=
 occri=off
 oniom=off
 oniom_eechg=off
 oniom_pcm=off
 oniom_qcorr=off
 optalg=
 optmaxit=50
 optetol=1e-6
 optex=0
 optgtol=1e-4
 optstol=1e-3
 orblocc=off
 orbloce=off
 orbloco=off
 orblocv=off
 orblocguess=cholesky
 osveps=1e-3
 ovirt=off
 ovltol=1e-7
 ovosnorb=80.0
 pcm=off
 popul=off
 pressure=100000
 pssp=off
 ptfreq=0.0
 ptthreads=2
 qro=off
 qscf=off
 qmmm=off
 redcost_exc=off
 redcost_tddft=off
 refdet=none
 rest=0
 rgrid=log3
 rism=off
 rohfcore=semicanonical
 rohftype=semicanonical
 scfalg=locfit1
 scf_conv=auto
 scfdamp=0.0d0
 scfdamp_mode=off
 scfdamp_end=1000
 scfdamp_dampstep=0.d0
 scfdamp_dtol=0.0d0
 scfdamp_maxfact=0.0d0
 scfdamp_minfact=0.0d0
 scfdiis=on
 scfdiis_dtol=0.0d0
 scfdiis_end=1000
 scfdiis_start=2
 scfdiis_step=1
 scfdiis_watch=off
 scfdiis_wrange=10
 scfdiis_wlimit=5
 scfdiis_delmax=2
 scfdtol=7
 scfext=10
 scfguessdens=
 scfiguess=small
 scfloc=pm
 scflshift=0.20
 scflshift_end=8
 scflshift_dtol=0.0
 scflshift_gaptol=0.20
 scfmaxit=1000
 scftype=rhf
 scftol=6
 scspe=1.d0
 scsph=1.d0
 scsps=1.2d0
 scsps_t=1.2d0
 scspt=0.33333333333333
 scspt_t=0.33333333333333
 scspv=1.d0
 spairtol=1e-4
 sqmprog=
 subminp=top
 symm=0
 talg=occ
 temp=298.15
 test=off
 theodore=off
 tlmo=0.999
 tpao=0.94
 tprint=off
 uncontract=off
 unit=angs
 usedisk=2
 verbosity=3
 wpairtol=0.100000000E-05
 
 Calculating integrals for small-basis SCF...

 ************************ 2023-04-26 01:19:19 *************************
 Executing integ...

 Allocation of 200.0 Gbytes of memory...
 
 
 Number of atoms:                 24
 Charge:                           0
 Number of electrons:             14
 Number of core electrons:         4
 Spin multiplicity:                1
 
                 Cartesian coordinates [bohr]      Atomic mass [AMU]  Z
   1  C     0.00000000    0.00000000    4.59825988    12.000000       6
   2  O     0.00000000    0.00000000    6.76543524    15.994915       8
   3  Mg    0.00000000    0.00000000   -0.01460385     0.000000       0
   4  O    -4.00656758    0.00000000   -0.00388515     0.000000       0
   5  O     0.00000000    4.00656758   -0.00388515     0.000000       0
   6  O     4.00656758    0.00000000   -0.00388515     0.000000       0
   7  O     0.00000000   -4.00656758   -0.00388515     0.000000       0
   8  O     0.00000000    0.00000000   -4.06107376     0.000000       0
   9  Mg   -3.99004829    3.99004829   -0.09713356     0.000000       0
  10  Mg    3.99004829    3.99004829   -0.09713356     0.000000       0
  11  Mg    3.99004829   -3.99004829   -0.09713356     0.000000       0
  12  Mg   -3.99004829   -3.99004829   -0.09713356     0.000000       0
  13  O    -3.98865346    3.98865346   -4.07607863     0.000000       0
  14  O     3.98865346    3.98865346   -4.07607863     0.000000       0
  15  O     3.98865346   -3.98865346   -4.07607863     0.000000       0
  16  O    -3.98865346   -3.98865346   -4.07607863     0.000000       0
  17  O    -7.97557688    3.99127429    0.00000000     0.000000       0
  18  O    -3.99127429    7.97557688    0.00000000     0.000000       0
  19  O     3.99127429    7.97557688    0.00000000     0.000000       0
  20  O     7.97557688    3.99127429    0.00000000     0.000000       0
  21  O     7.97557688   -3.99127429    0.00000000     0.000000       0
  22  O     3.99127429   -7.97557688    0.00000000     0.000000       0
  23  O    -3.99127429   -7.97557688    0.00000000     0.000000       0
  24  O    -7.97557688   -3.99127429    0.00000000     0.000000       0
 
 This molecule is a prolate symmetric top.
 
 Point group: C4v 
 Computational point group: C1  
 
 Cartesian coordinates in standard orientation [bohr]
   1  C     0.00000000    0.00000000    2.66572096
   2  O     0.00000000    0.00000000    4.83289632
   3  Mg    0.00000000    0.00000000   -1.94714277
   4  O     4.00656758   -0.00000000   -1.93642407
   5  O    -0.00000000   -4.00656758   -1.93642407
   6  O    -4.00656758    0.00000000   -1.93642407
   7  O     0.00000000    4.00656758   -1.93642407
   8  O     0.00000000    0.00000000   -5.99361268
   9  Mg    3.99004829   -3.99004829   -2.02967248
  10  Mg   -3.99004829   -3.99004829   -2.02967248
  11  Mg   -3.99004829    3.99004829   -2.02967248
  12  Mg    3.99004829    3.99004829   -2.02967248
  13  O     3.98865346   -3.98865346   -6.00861755
  14  O    -3.98865346   -3.98865346   -6.00861755
  15  O    -3.98865346    3.98865346   -6.00861755
  16  O     3.98865346    3.98865346   -6.00861755
  17  O     7.97557688   -3.99127429   -1.93253892
  18  O     3.99127429   -7.97557688   -1.93253892
  19  O    -3.99127429   -7.97557688   -1.93253892
  20  O    -7.97557688   -3.99127429   -1.93253892
  21  O    -7.97557688    3.99127429   -1.93253892
  22  O    -3.99127429    7.97557688   -1.93253892
  23  O     3.99127429    7.97557688   -1.93253892
  24  O     7.97557688    3.99127429   -1.93253892
 
 Nuclear repulsion energy [au]:         22.148646010002
 
 
 Basis set information:
 
 Maximum angular momentum: g
 Maximum number of contracted Gaussians:   13
 Maximum number of primitive Gaussians:    16
 Spherical harmonic GTOs are used.
 
 
 Conventional basis set:
 
   1  C  def2-svp [ 7s 4p 1d | 3s 2p 1d ]
   2  O  def2-svp [ 7s 4p 1d | 3s 2p 1d ]
   3  Mg def2-svp [ 10s 7p 1d | 4s 3p 1d ]
   4  O  def2-svp [ 7s 4p 1d | 3s 2p 1d ]
   5  O  def2-svp [ 7s 4p 1d | 3s 2p 1d ]
   6  O  def2-svp [ 7s 4p 1d | 3s 2p 1d ]
   7  O  def2-svp [ 7s 4p 1d | 3s 2p 1d ]
   8  O  def2-svp [ 7s 4p 1d | 3s 2p 1d ]
   9  Mg def2-svp [ 10s 7p 1d | 4s 3p 1d ]
  10  Mg def2-svp [ 10s 7p 1d | 4s 3p 1d ]
  11  Mg def2-svp [ 10s 7p 1d | 4s 3p 1d ]
  12  Mg def2-svp [ 10s 7p 1d | 4s 3p 1d ]
  13  O  def2-svp [ 7s 4p 1d | 3s 2p 1d ]
  14  O  def2-svp [ 7s 4p 1d | 3s 2p 1d ]
  15  O  def2-svp [ 7s 4p 1d | 3s 2p 1d ]
  16  O  def2-svp [ 7s 4p 1d | 3s 2p 1d ]
  17  O  def2-svp [ 7s 4p 1d | 3s 2p 1d ]
  18  O  def2-svp [ 7s 4p 1d | 3s 2p 1d ]
  19  O  def2-svp [ 7s 4p 1d | 3s 2p 1d ]
  20  O  def2-svp [ 7s 4p 1d | 3s 2p 1d ]
  21  O  def2-svp [ 7s 4p 1d | 3s 2p 1d ]
  22  O  def2-svp [ 7s 4p 1d | 3s 2p 1d ]
  23  O  def2-svp [ 7s 4p 1d | 3s 2p 1d ]
  24  O  def2-svp [ 7s 4p 1d | 3s 2p 1d ]
 
 Basis functions:
            1             2             3             4             5             6             7             8             9            10
    0    1C1s          1C2s          1C3s          1C1pz         1C1py         1C1px         1C2pz         1C2py         1C2px         1C1d-2    
    1    1C1d-1        1C1d0         1C1d+1        1C1d+2        2O1s          2O2s          2O3s          2O1pz         2O1py         2O1px     
    2    2O2pz         2O2py         2O2px         2O1d-2        2O1d-1        2O1d0         2O1d+1        2O1d+2        3Mg1s         3Mg2s     
    3    3Mg3s         3Mg4s         3Mg1pz        3Mg1py        3Mg1px        3Mg2pz        3Mg2py        3Mg2px        3Mg3pz        3Mg3py    
    4    3Mg3px        3Mg1d-2       3Mg1d-1       3Mg1d0        3Mg1d+1       3Mg1d+2       4O1s          4O2s          4O3s          4O1pz     
    5    4O1py         4O1px         4O2pz         4O2py         4O2px         4O1d-2        4O1d-1        4O1d0         4O1d+1        4O1d+2    
    6    5O1s          5O2s          5O3s          5O1pz         5O1py         5O1px         5O2pz         5O2py         5O2px         5O1d-2    
    7    5O1d-1        5O1d0         5O1d+1        5O1d+2        6O1s          6O2s          6O3s          6O1pz         6O1py         6O1px     
    8    6O2pz         6O2py         6O2px         6O1d-2        6O1d-1        6O1d0         6O1d+1        6O1d+2        7O1s          7O2s      
    9    7O3s          7O1pz         7O1py         7O1px         7O2pz         7O2py         7O2px         7O1d-2        7O1d-1        7O1d0     
   10    7O1d+1        7O1d+2        8O1s          8O2s          8O3s          8O1pz         8O1py         8O1px         8O2pz         8O2py     
   11    8O2px         8O1d-2        8O1d-1        8O1d0         8O1d+1        8O1d+2        9Mg1s         9Mg2s         9Mg3s         9Mg4s     
   12    9Mg1pz        9Mg1py        9Mg1px        9Mg2pz        9Mg2py        9Mg2px        9Mg3pz        9Mg3py        9Mg3px        9Mg1d-2   
   13    9Mg1d-1       9Mg1d0        9Mg1d+1       9Mg1d+2      10Mg1s        10Mg2s        10Mg3s        10Mg4s        10Mg1pz       10Mg1py    
   14   10Mg1px       10Mg2pz       10Mg2py       10Mg2px       10Mg3pz       10Mg3py       10Mg3px       10Mg1d-2      10Mg1d-1      10Mg1d0    
   15   10Mg1d+1      10Mg1d+2      11Mg1s        11Mg2s        11Mg3s        11Mg4s        11Mg1pz       11Mg1py       11Mg1px       11Mg2pz    
   16   11Mg2py       11Mg2px       11Mg3pz       11Mg3py       11Mg3px       11Mg1d-2      11Mg1d-1      11Mg1d0       11Mg1d+1      11Mg1d+2   
   17   12Mg1s        12Mg2s        12Mg3s        12Mg4s        12Mg1pz       12Mg1py       12Mg1px       12Mg2pz       12Mg2py       12Mg2px    
   18   12Mg3pz       12Mg3py       12Mg3px       12Mg1d-2      12Mg1d-1      12Mg1d0       12Mg1d+1      12Mg1d+2      13O1s         13O2s      
   19   13O3s         13O1pz        13O1py        13O1px        13O2pz        13O2py        13O2px        13O1d-2       13O1d-1       13O1d0     
   20   13O1d+1       13O1d+2       14O1s         14O2s         14O3s         14O1pz        14O1py        14O1px        14O2pz        14O2py     
   21   14O2px        14O1d-2       14O1d-1       14O1d0        14O1d+1       14O1d+2       15O1s         15O2s         15O3s         15O1pz     
   22   15O1py        15O1px        15O2pz        15O2py        15O2px        15O1d-2       15O1d-1       15O1d0        15O1d+1       15O1d+2    
   23   16O1s         16O2s         16O3s         16O1pz        16O1py        16O1px        16O2pz        16O2py        16O2px        16O1d-2    
   24   16O1d-1       16O1d0        16O1d+1       16O1d+2       17O1s         17O2s         17O3s         17O1pz        17O1py        17O1px     
   25   17O2pz        17O2py        17O2px        17O1d-2       17O1d-1       17O1d0        17O1d+1       17O1d+2       18O1s         18O2s      
   26   18O3s         18O1pz        18O1py        18O1px        18O2pz        18O2py        18O2px        18O1d-2       18O1d-1       18O1d0     
   27   18O1d+1       18O1d+2       19O1s         19O2s         19O3s         19O1pz        19O1py        19O1px        19O2pz        19O2py     
   28   19O2px        19O1d-2       19O1d-1       19O1d0        19O1d+1       19O1d+2       20O1s         20O2s         20O3s         20O1pz     
   29   20O1py        20O1px        20O2pz        20O2py        20O2px        20O1d-2       20O1d-1       20O1d0        20O1d+1       20O1d+2    
   30   21O1s         21O2s         21O3s         21O1pz        21O1py        21O1px        21O2pz        21O2py        21O2px        21O1d-2    
   31   21O1d-1       21O1d0        21O1d+1       21O1d+2       22O1s         22O2s         22O3s         22O1pz        22O1py        22O1px     
   32   22O2pz        22O2py        22O2px        22O1d-2       22O1d-1       22O1d0        22O1d+1       22O1d+2       23O1s         23O2s      
   33   23O3s         23O1pz        23O1py        23O1px        23O2pz        23O2py        23O2px        23O1d-2       23O1d-1       23O1d0     
   34   23O1d+1       23O1d+2       24O1s         24O2s         24O3s         24O1pz        24O1py        24O1px        24O2pz        24O2py     
   35   24O2px        24O1d-2       24O1d-1       24O1d0        24O1d+1       24O1d+2    
 
 Maximum number of basis functions per shell:    9
 Total number of basis functions:    356
 
 
 Fitting basis set for the SCF calculation:
 
   1  C  def2-qzvpp-ri-jk [ 14s 10p 6d 2f 1g | 10s 8p 5d 1f 1g ]
   2  O  def2-qzvpp-ri-jk [ 14s 10p 6d 2f 1g | 10s 8p 4d 2f 1g ]
   3  Mg def2-qzvpp-ri-jk [ 16s 12p 9d 4f 1g | 13s 9p 7d 4f 1g ]
   4  O  def2-qzvpp-ri-jk [ 14s 10p 6d 2f 1g | 10s 8p 4d 2f 1g ]
   5  O  def2-qzvpp-ri-jk [ 14s 10p 6d 2f 1g | 10s 8p 4d 2f 1g ]
   6  O  def2-qzvpp-ri-jk [ 14s 10p 6d 2f 1g | 10s 8p 4d 2f 1g ]
   7  O  def2-qzvpp-ri-jk [ 14s 10p 6d 2f 1g | 10s 8p 4d 2f 1g ]
   8  O  def2-qzvpp-ri-jk [ 14s 10p 6d 2f 1g | 10s 8p 4d 2f 1g ]
   9  Mg def2-qzvpp-ri-jk [ 16s 12p 9d 4f 1g | 13s 9p 7d 4f 1g ]
  10  Mg def2-qzvpp-ri-jk [ 16s 12p 9d 4f 1g | 13s 9p 7d 4f 1g ]
  11  Mg def2-qzvpp-ri-jk [ 16s 12p 9d 4f 1g | 13s 9p 7d 4f 1g ]
  12  Mg def2-qzvpp-ri-jk [ 16s 12p 9d 4f 1g | 13s 9p 7d 4f 1g ]
  13  O  def2-qzvpp-ri-jk [ 14s 10p 6d 2f 1g | 10s 8p 4d 2f 1g ]
  14  O  def2-qzvpp-ri-jk [ 14s 10p 6d 2f 1g | 10s 8p 4d 2f 1g ]
  15  O  def2-qzvpp-ri-jk [ 14s 10p 6d 2f 1g | 10s 8p 4d 2f 1g ]
  16  O  def2-qzvpp-ri-jk [ 14s 10p 6d 2f 1g | 10s 8p 4d 2f 1g ]
  17  O  def2-qzvpp-ri-jk [ 14s 10p 6d 2f 1g | 10s 8p 4d 2f 1g ]
  18  O  def2-qzvpp-ri-jk [ 14s 10p 6d 2f 1g | 10s 8p 4d 2f 1g ]
  19  O  def2-qzvpp-ri-jk [ 14s 10p 6d 2f 1g | 10s 8p 4d 2f 1g ]
  20  O  def2-qzvpp-ri-jk [ 14s 10p 6d 2f 1g | 10s 8p 4d 2f 1g ]
  21  O  def2-qzvpp-ri-jk [ 14s 10p 6d 2f 1g | 10s 8p 4d 2f 1g ]
  22  O  def2-qzvpp-ri-jk [ 14s 10p 6d 2f 1g | 10s 8p 4d 2f 1g ]
  23  O  def2-qzvpp-ri-jk [ 14s 10p 6d 2f 1g | 10s 8p 4d 2f 1g ]
  24  O  def2-qzvpp-ri-jk [ 14s 10p 6d 2f 1g | 10s 8p 4d 2f 1g ]
 
 Basis functions:
            1             2             3             4             5             6             7             8             9            10
    0    1C1s          1C2s          1C3s          1C4s          1C5s          1C6s          1C7s          1C8s          1C9s          1C10s     
    1    1C1pz         1C1py         1C1px         1C2pz         1C2py         1C2px         1C3pz         1C3py         1C3px         1C4pz     
    2    1C4py         1C4px         1C5pz         1C5py         1C5px         1C6pz         1C6py         1C6px         1C7pz         1C7py     
    3    1C7px         1C8pz         1C8py         1C8px         1C1d-2        1C1d-1        1C1d0         1C1d+1        1C1d+2        1C2d-2    
    4    1C2d-1        1C2d0         1C2d+1        1C2d+2        1C3d-2        1C3d-1        1C3d0         1C3d+1        1C3d+2        1C4d-2    
    5    1C4d-1        1C4d0         1C4d+1        1C4d+2        1C5d-2        1C5d-1        1C5d0         1C5d+1        1C5d+2        1C1f-3    
    6    1C1f-2        1C1f-1        1C1f0         1C1f+1        1C1f+2        1C1f+3        1C1g-4        1C1g-3        1C1g-2        1C1g-1    
    7    1C1g0         1C1g+1        1C1g+2        1C1g+3        1C1g+4        2O1s          2O2s          2O3s          2O4s          2O5s      
    8    2O6s          2O7s          2O8s          2O9s          2O10s         2O1pz         2O1py         2O1px         2O2pz         2O2py     
    9    2O2px         2O3pz         2O3py         2O3px         2O4pz         2O4py         2O4px         2O5pz         2O5py         2O5px     
   10    2O6pz         2O6py         2O6px         2O7pz         2O7py         2O7px         2O8pz         2O8py         2O8px         2O1d-2    
   11    2O1d-1        2O1d0         2O1d+1        2O1d+2        2O2d-2        2O2d-1        2O2d0         2O2d+1        2O2d+2        2O3d-2    
   12    2O3d-1        2O3d0         2O3d+1        2O3d+2        2O4d-2        2O4d-1        2O4d0         2O4d+1        2O4d+2        2O1f-3    
   13    2O1f-2        2O1f-1        2O1f0         2O1f+1        2O1f+2        2O1f+3        2O2f-3        2O2f-2        2O2f-1        2O2f0     
   14    2O2f+1        2O2f+2        2O2f+3        2O1g-4        2O1g-3        2O1g-2        2O1g-1        2O1g0         2O1g+1        2O1g+2    
   15    2O1g+3        2O1g+4        3Mg1s         3Mg2s         3Mg3s         3Mg4s         3Mg5s         3Mg6s         3Mg7s         3Mg8s     
   16    3Mg9s         3Mg10s        3Mg11s        3Mg12s        3Mg13s        3Mg1pz        3Mg1py        3Mg1px        3Mg2pz        3Mg2py    
   17    3Mg2px        3Mg3pz        3Mg3py        3Mg3px        3Mg4pz        3Mg4py        3Mg4px        3Mg5pz        3Mg5py        3Mg5px    
   18    3Mg6pz        3Mg6py        3Mg6px        3Mg7pz        3Mg7py        3Mg7px        3Mg8pz        3Mg8py        3Mg8px        3Mg9pz    
   19    3Mg9py        3Mg9px        3Mg1d-2       3Mg1d-1       3Mg1d0        3Mg1d+1       3Mg1d+2       3Mg2d-2       3Mg2d-1       3Mg2d0    
   20    3Mg2d+1       3Mg2d+2       3Mg3d-2       3Mg3d-1       3Mg3d0        3Mg3d+1       3Mg3d+2       3Mg4d-2       3Mg4d-1       3Mg4d0    
   21    3Mg4d+1       3Mg4d+2       3Mg5d-2       3Mg5d-1       3Mg5d0        3Mg5d+1       3Mg5d+2       3Mg6d-2       3Mg6d-1       3Mg6d0    
   22    3Mg6d+1       3Mg6d+2       3Mg7d-2       3Mg7d-1       3Mg7d0        3Mg7d+1       3Mg7d+2       3Mg1f-3       3Mg1f-2       3Mg1f-1   
   23    3Mg1f0        3Mg1f+1       3Mg1f+2       3Mg1f+3       3Mg2f-3       3Mg2f-2       3Mg2f-1       3Mg2f0        3Mg2f+1       3Mg2f+2   
   24    3Mg2f+3       3Mg3f-3       3Mg3f-2       3Mg3f-1       3Mg3f0        3Mg3f+1       3Mg3f+2       3Mg3f+3       3Mg4f-3       3Mg4f-2   
   25    3Mg4f-1       3Mg4f0        3Mg4f+1       3Mg4f+2       3Mg4f+3       3Mg1g-4       3Mg1g-3       3Mg1g-2       3Mg1g-1       3Mg1g0    
   26    3Mg1g+1       3Mg1g+2       3Mg1g+3       3Mg1g+4       4O1s          4O2s          4O3s          4O4s          4O5s          4O6s      
   27    4O7s          4O8s          4O9s          4O10s         4O1pz         4O1py         4O1px         4O2pz         4O2py         4O2px     
   28    4O3pz         4O3py         4O3px         4O4pz         4O4py         4O4px         4O5pz         4O5py         4O5px         4O6pz     
   29    4O6py         4O6px         4O7pz         4O7py         4O7px         4O8pz         4O8py         4O8px         4O1d-2        4O1d-1    
   30    4O1d0         4O1d+1        4O1d+2        4O2d-2        4O2d-1        4O2d0         4O2d+1        4O2d+2        4O3d-2        4O3d-1    
   31    4O3d0         4O3d+1        4O3d+2        4O4d-2        4O4d-1        4O4d0         4O4d+1        4O4d+2        4O1f-3        4O1f-2    
   32    4O1f-1        4O1f0         4O1f+1        4O1f+2        4O1f+3        4O2f-3        4O2f-2        4O2f-1        4O2f0         4O2f+1    
   33    4O2f+2        4O2f+3        4O1g-4        4O1g-3        4O1g-2        4O1g-1        4O1g0         4O1g+1        4O1g+2        4O1g+3    
   34    4O1g+4        5O1s          5O2s          5O3s          5O4s          5O5s          5O6s          5O7s          5O8s          5O9s      
   35    5O10s         5O1pz         5O1py         5O1px         5O2pz         5O2py         5O2px         5O3pz         5O3py         5O3px     
   36    5O4pz         5O4py         5O4px         5O5pz         5O5py         5O5px         5O6pz         5O6py         5O6px         5O7pz     
   37    5O7py         5O7px         5O8pz         5O8py         5O8px         5O1d-2        5O1d-1        5O1d0         5O1d+1        5O1d+2    
   38    5O2d-2        5O2d-1        5O2d0         5O2d+1        5O2d+2        5O3d-2        5O3d-1        5O3d0         5O3d+1        5O3d+2    
   39    5O4d-2        5O4d-1        5O4d0         5O4d+1        5O4d+2        5O1f-3        5O1f-2        5O1f-1        5O1f0         5O1f+1    
   40    5O1f+2        5O1f+3        5O2f-3        5O2f-2        5O2f-1        5O2f0         5O2f+1        5O2f+2        5O2f+3        5O1g-4    
   41    5O1g-3        5O1g-2        5O1g-1        5O1g0         5O1g+1        5O1g+2        5O1g+3        5O1g+4        6O1s          6O2s      
   42    6O3s          6O4s          6O5s          6O6s          6O7s          6O8s          6O9s          6O10s         6O1pz         6O1py     
   43    6O1px         6O2pz         6O2py         6O2px         6O3pz         6O3py         6O3px         6O4pz         6O4py         6O4px     
   44    6O5pz         6O5py         6O5px         6O6pz         6O6py         6O6px         6O7pz         6O7py         6O7px         6O8pz     
   45    6O8py         6O8px         6O1d-2        6O1d-1        6O1d0         6O1d+1        6O1d+2        6O2d-2        6O2d-1        6O2d0     
   46    6O2d+1        6O2d+2        6O3d-2        6O3d-1        6O3d0         6O3d+1        6O3d+2        6O4d-2        6O4d-1        6O4d0     
   47    6O4d+1        6O4d+2        6O1f-3        6O1f-2        6O1f-1        6O1f0         6O1f+1        6O1f+2        6O1f+3        6O2f-3    
   48    6O2f-2        6O2f-1        6O2f0         6O2f+1        6O2f+2        6O2f+3        6O1g-4        6O1g-3        6O1g-2        6O1g-1    
   49    6O1g0         6O1g+1        6O1g+2        6O1g+3        6O1g+4        7O1s          7O2s          7O3s          7O4s          7O5s      
   50    7O6s          7O7s          7O8s          7O9s          7O10s         7O1pz         7O1py         7O1px         7O2pz         7O2py     
   51    7O2px         7O3pz         7O3py         7O3px         7O4pz         7O4py         7O4px         7O5pz         7O5py         7O5px     
   52    7O6pz         7O6py         7O6px         7O7pz         7O7py         7O7px         7O8pz         7O8py         7O8px         7O1d-2    
   53    7O1d-1        7O1d0         7O1d+1        7O1d+2        7O2d-2        7O2d-1        7O2d0         7O2d+1        7O2d+2        7O3d-2    
   54    7O3d-1        7O3d0         7O3d+1        7O3d+2        7O4d-2        7O4d-1        7O4d0         7O4d+1        7O4d+2        7O1f-3    
   55    7O1f-2        7O1f-1        7O1f0         7O1f+1        7O1f+2        7O1f+3        7O2f-3        7O2f-2        7O2f-1        7O2f0     
   56    7O2f+1        7O2f+2        7O2f+3        7O1g-4        7O1g-3        7O1g-2        7O1g-1        7O1g0         7O1g+1        7O1g+2    
   57    7O1g+3        7O1g+4        8O1s          8O2s          8O3s          8O4s          8O5s          8O6s          8O7s          8O8s      
   58    8O9s          8O10s         8O1pz         8O1py         8O1px         8O2pz         8O2py         8O2px         8O3pz         8O3py     
   59    8O3px         8O4pz         8O4py         8O4px         8O5pz         8O5py         8O5px         8O6pz         8O6py         8O6px     
   60    8O7pz         8O7py         8O7px         8O8pz         8O8py         8O8px         8O1d-2        8O1d-1        8O1d0         8O1d+1    
   61    8O1d+2        8O2d-2        8O2d-1        8O2d0         8O2d+1        8O2d+2        8O3d-2        8O3d-1        8O3d0         8O3d+1    
   62    8O3d+2        8O4d-2        8O4d-1        8O4d0         8O4d+1        8O4d+2        8O1f-3        8O1f-2        8O1f-1        8O1f0     
   63    8O1f+1        8O1f+2        8O1f+3        8O2f-3        8O2f-2        8O2f-1        8O2f0         8O2f+1        8O2f+2        8O2f+3    
   64    8O1g-4        8O1g-3        8O1g-2        8O1g-1        8O1g0         8O1g+1        8O1g+2        8O1g+3        8O1g+4        9Mg1s     
   65    9Mg2s         9Mg3s         9Mg4s         9Mg5s         9Mg6s         9Mg7s         9Mg8s         9Mg9s         9Mg10s        9Mg11s    
   66    9Mg12s        9Mg13s        9Mg1pz        9Mg1py        9Mg1px        9Mg2pz        9Mg2py        9Mg2px        9Mg3pz        9Mg3py    
   67    9Mg3px        9Mg4pz        9Mg4py        9Mg4px        9Mg5pz        9Mg5py        9Mg5px        9Mg6pz        9Mg6py        9Mg6px    
   68    9Mg7pz        9Mg7py        9Mg7px        9Mg8pz        9Mg8py        9Mg8px        9Mg9pz        9Mg9py        9Mg9px        9Mg1d-2   
   69    9Mg1d-1       9Mg1d0        9Mg1d+1       9Mg1d+2       9Mg2d-2       9Mg2d-1       9Mg2d0        9Mg2d+1       9Mg2d+2       9Mg3d-2   
   70    9Mg3d-1       9Mg3d0        9Mg3d+1       9Mg3d+2       9Mg4d-2       9Mg4d-1       9Mg4d0        9Mg4d+1       9Mg4d+2       9Mg5d-2   
   71    9Mg5d-1       9Mg5d0        9Mg5d+1       9Mg5d+2       9Mg6d-2       9Mg6d-1       9Mg6d0        9Mg6d+1       9Mg6d+2       9Mg7d-2   
   72    9Mg7d-1       9Mg7d0        9Mg7d+1       9Mg7d+2       9Mg1f-3       9Mg1f-2       9Mg1f-1       9Mg1f0        9Mg1f+1       9Mg1f+2   
   73    9Mg1f+3       9Mg2f-3       9Mg2f-2       9Mg2f-1       9Mg2f0        9Mg2f+1       9Mg2f+2       9Mg2f+3       9Mg3f-3       9Mg3f-2   
   74    9Mg3f-1       9Mg3f0        9Mg3f+1       9Mg3f+2       9Mg3f+3       9Mg4f-3       9Mg4f-2       9Mg4f-1       9Mg4f0        9Mg4f+1   
   75    9Mg4f+2       9Mg4f+3       9Mg1g-4       9Mg1g-3       9Mg1g-2       9Mg1g-1       9Mg1g0        9Mg1g+1       9Mg1g+2       9Mg1g+3   
   76    9Mg1g+4      10Mg1s        10Mg2s        10Mg3s        10Mg4s        10Mg5s        10Mg6s        10Mg7s        10Mg8s        10Mg9s     
   77   10Mg10s       10Mg11s       10Mg12s       10Mg13s       10Mg1pz       10Mg1py       10Mg1px       10Mg2pz       10Mg2py       10Mg2px    
   78   10Mg3pz       10Mg3py       10Mg3px       10Mg4pz       10Mg4py       10Mg4px       10Mg5pz       10Mg5py       10Mg5px       10Mg6pz    
   79   10Mg6py       10Mg6px       10Mg7pz       10Mg7py       10Mg7px       10Mg8pz       10Mg8py       10Mg8px       10Mg9pz       10Mg9py    
   80   10Mg9px       10Mg1d-2      10Mg1d-1      10Mg1d0       10Mg1d+1      10Mg1d+2      10Mg2d-2      10Mg2d-1      10Mg2d0       10Mg2d+1   
   81   10Mg2d+2      10Mg3d-2      10Mg3d-1      10Mg3d0       10Mg3d+1      10Mg3d+2      10Mg4d-2      10Mg4d-1      10Mg4d0       10Mg4d+1   
   82   10Mg4d+2      10Mg5d-2      10Mg5d-1      10Mg5d0       10Mg5d+1      10Mg5d+2      10Mg6d-2      10Mg6d-1      10Mg6d0       10Mg6d+1   
   83   10Mg6d+2      10Mg7d-2      10Mg7d-1      10Mg7d0       10Mg7d+1      10Mg7d+2      10Mg1f-3      10Mg1f-2      10Mg1f-1      10Mg1f0    
   84   10Mg1f+1      10Mg1f+2      10Mg1f+3      10Mg2f-3      10Mg2f-2      10Mg2f-1      10Mg2f0       10Mg2f+1      10Mg2f+2      10Mg2f+3   
   85   10Mg3f-3      10Mg3f-2      10Mg3f-1      10Mg3f0       10Mg3f+1      10Mg3f+2      10Mg3f+3      10Mg4f-3      10Mg4f-2      10Mg4f-1   
   86   10Mg4f0       10Mg4f+1      10Mg4f+2      10Mg4f+3      10Mg1g-4      10Mg1g-3      10Mg1g-2      10Mg1g-1      10Mg1g0       10Mg1g+1   
   87   10Mg1g+2      10Mg1g+3      10Mg1g+4      11Mg1s        11Mg2s        11Mg3s        11Mg4s        11Mg5s        11Mg6s        11Mg7s     
   88   11Mg8s        11Mg9s        11Mg10s       11Mg11s       11Mg12s       11Mg13s       11Mg1pz       11Mg1py       11Mg1px       11Mg2pz    
   89   11Mg2py       11Mg2px       11Mg3pz       11Mg3py       11Mg3px       11Mg4pz       11Mg4py       11Mg4px       11Mg5pz       11Mg5py    
   90   11Mg5px       11Mg6pz       11Mg6py       11Mg6px       11Mg7pz       11Mg7py       11Mg7px       11Mg8pz       11Mg8py       11Mg8px    
   91   11Mg9pz       11Mg9py       11Mg9px       11Mg1d-2      11Mg1d-1      11Mg1d0       11Mg1d+1      11Mg1d+2      11Mg2d-2      11Mg2d-1   
   92   11Mg2d0       11Mg2d+1      11Mg2d+2      11Mg3d-2      11Mg3d-1      11Mg3d0       11Mg3d+1      11Mg3d+2      11Mg4d-2      11Mg4d-1   
   93   11Mg4d0       11Mg4d+1      11Mg4d+2      11Mg5d-2      11Mg5d-1      11Mg5d0       11Mg5d+1      11Mg5d+2      11Mg6d-2      11Mg6d-1   
   94   11Mg6d0       11Mg6d+1      11Mg6d+2      11Mg7d-2      11Mg7d-1      11Mg7d0       11Mg7d+1      11Mg7d+2      11Mg1f-3      11Mg1f-2   
   95   11Mg1f-1      11Mg1f0       11Mg1f+1      11Mg1f+2      11Mg1f+3      11Mg2f-3      11Mg2f-2      11Mg2f-1      11Mg2f0       11Mg2f+1   
   96   11Mg2f+2      11Mg2f+3      11Mg3f-3      11Mg3f-2      11Mg3f-1      11Mg3f0       11Mg3f+1      11Mg3f+2      11Mg3f+3      11Mg4f-3   
   97   11Mg4f-2      11Mg4f-1      11Mg4f0       11Mg4f+1      11Mg4f+2      11Mg4f+3      11Mg1g-4      11Mg1g-3      11Mg1g-2      11Mg1g-1   
   98   11Mg1g0       11Mg1g+1      11Mg1g+2      11Mg1g+3      11Mg1g+4      12Mg1s        12Mg2s        12Mg3s        12Mg4s        12Mg5s     
   99   12Mg6s        12Mg7s        12Mg8s        12Mg9s        12Mg10s       12Mg11s       12Mg12s       12Mg13s       12Mg1pz       12Mg1py    
  100   12Mg1px       12Mg2pz       12Mg2py       12Mg2px       12Mg3pz       12Mg3py       12Mg3px       12Mg4pz       12Mg4py       12Mg4px    
  101   12Mg5pz       12Mg5py       12Mg5px       12Mg6pz       12Mg6py       12Mg6px       12Mg7pz       12Mg7py       12Mg7px       12Mg8pz    
  102   12Mg8py       12Mg8px       12Mg9pz       12Mg9py       12Mg9px       12Mg1d-2      12Mg1d-1      12Mg1d0       12Mg1d+1      12Mg1d+2   
  103   12Mg2d-2      12Mg2d-1      12Mg2d0       12Mg2d+1      12Mg2d+2      12Mg3d-2      12Mg3d-1      12Mg3d0       12Mg3d+1      12Mg3d+2   
  104   12Mg4d-2      12Mg4d-1      12Mg4d0       12Mg4d+1      12Mg4d+2      12Mg5d-2      12Mg5d-1      12Mg5d0       12Mg5d+1      12Mg5d+2   
  105   12Mg6d-2      12Mg6d-1      12Mg6d0       12Mg6d+1      12Mg6d+2      12Mg7d-2      12Mg7d-1      12Mg7d0       12Mg7d+1      12Mg7d+2   
  106   12Mg1f-3      12Mg1f-2      12Mg1f-1      12Mg1f0       12Mg1f+1      12Mg1f+2      12Mg1f+3      12Mg2f-3      12Mg2f-2      12Mg2f-1   
  107   12Mg2f0       12Mg2f+1      12Mg2f+2      12Mg2f+3      12Mg3f-3      12Mg3f-2      12Mg3f-1      12Mg3f0       12Mg3f+1      12Mg3f+2   
  108   12Mg3f+3      12Mg4f-3      12Mg4f-2      12Mg4f-1      12Mg4f0       12Mg4f+1      12Mg4f+2      12Mg4f+3      12Mg1g-4      12Mg1g-3   
  109   12Mg1g-2      12Mg1g-1      12Mg1g0       12Mg1g+1      12Mg1g+2      12Mg1g+3      12Mg1g+4      13O1s         13O2s         13O3s      
  110   13O4s         13O5s         13O6s         13O7s         13O8s         13O9s         13O10s        13O1pz        13O1py        13O1px     
  111   13O2pz        13O2py        13O2px        13O3pz        13O3py        13O3px        13O4pz        13O4py        13O4px        13O5pz     
  112   13O5py        13O5px        13O6pz        13O6py        13O6px        13O7pz        13O7py        13O7px        13O8pz        13O8py     
  113   13O8px        13O1d-2       13O1d-1       13O1d0        13O1d+1       13O1d+2       13O2d-2       13O2d-1       13O2d0        13O2d+1    
  114   13O2d+2       13O3d-2       13O3d-1       13O3d0        13O3d+1       13O3d+2       13O4d-2       13O4d-1       13O4d0        13O4d+1    
  115   13O4d+2       13O1f-3       13O1f-2       13O1f-1       13O1f0        13O1f+1       13O1f+2       13O1f+3       13O2f-3       13O2f-2    
  116   13O2f-1       13O2f0        13O2f+1       13O2f+2       13O2f+3       13O1g-4       13O1g-3       13O1g-2       13O1g-1       13O1g0     
  117   13O1g+1       13O1g+2       13O1g+3       13O1g+4       14O1s         14O2s         14O3s         14O4s         14O5s         14O6s      
  118   14O7s         14O8s         14O9s         14O10s        14O1pz        14O1py        14O1px        14O2pz        14O2py        14O2px     
  119   14O3pz        14O3py        14O3px        14O4pz        14O4py        14O4px        14O5pz        14O5py        14O5px        14O6pz     
  120   14O6py        14O6px        14O7pz        14O7py        14O7px        14O8pz        14O8py        14O8px        14O1d-2       14O1d-1    
  121   14O1d0        14O1d+1       14O1d+2       14O2d-2       14O2d-1       14O2d0        14O2d+1       14O2d+2       14O3d-2       14O3d-1    
  122   14O3d0        14O3d+1       14O3d+2       14O4d-2       14O4d-1       14O4d0        14O4d+1       14O4d+2       14O1f-3       14O1f-2    
  123   14O1f-1       14O1f0        14O1f+1       14O1f+2       14O1f+3       14O2f-3       14O2f-2       14O2f-1       14O2f0        14O2f+1    
  124   14O2f+2       14O2f+3       14O1g-4       14O1g-3       14O1g-2       14O1g-1       14O1g0        14O1g+1       14O1g+2       14O1g+3    
  125   14O1g+4       15O1s         15O2s         15O3s         15O4s         15O5s         15O6s         15O7s         15O8s         15O9s      
  126   15O10s        15O1pz        15O1py        15O1px        15O2pz        15O2py        15O2px        15O3pz        15O3py        15O3px     
  127   15O4pz        15O4py        15O4px        15O5pz        15O5py        15O5px        15O6pz        15O6py        15O6px        15O7pz     
  128   15O7py        15O7px        15O8pz        15O8py        15O8px        15O1d-2       15O1d-1       15O1d0        15O1d+1       15O1d+2    
  129   15O2d-2       15O2d-1       15O2d0        15O2d+1       15O2d+2       15O3d-2       15O3d-1       15O3d0        15O3d+1       15O3d+2    
  130   15O4d-2       15O4d-1       15O4d0        15O4d+1       15O4d+2       15O1f-3       15O1f-2       15O1f-1       15O1f0        15O1f+1    
  131   15O1f+2       15O1f+3       15O2f-3       15O2f-2       15O2f-1       15O2f0        15O2f+1       15O2f+2       15O2f+3       15O1g-4    
  132   15O1g-3       15O1g-2       15O1g-1       15O1g0        15O1g+1       15O1g+2       15O1g+3       15O1g+4       16O1s         16O2s      
  133   16O3s         16O4s         16O5s         16O6s         16O7s         16O8s         16O9s         16O10s        16O1pz        16O1py     
  134   16O1px        16O2pz        16O2py        16O2px        16O3pz        16O3py        16O3px        16O4pz        16O4py        16O4px     
  135   16O5pz        16O5py        16O5px        16O6pz        16O6py        16O6px        16O7pz        16O7py        16O7px        16O8pz     
  136   16O8py        16O8px        16O1d-2       16O1d-1       16O1d0        16O1d+1       16O1d+2       16O2d-2       16O2d-1       16O2d0     
  137   16O2d+1       16O2d+2       16O3d-2       16O3d-1       16O3d0        16O3d+1       16O3d+2       16O4d-2       16O4d-1       16O4d0     
  138   16O4d+1       16O4d+2       16O1f-3       16O1f-2       16O1f-1       16O1f0        16O1f+1       16O1f+2       16O1f+3       16O2f-3    
  139   16O2f-2       16O2f-1       16O2f0        16O2f+1       16O2f+2       16O2f+3       16O1g-4       16O1g-3       16O1g-2       16O1g-1    
  140   16O1g0        16O1g+1       16O1g+2       16O1g+3       16O1g+4       17O1s         17O2s         17O3s         17O4s         17O5s      
  141   17O6s         17O7s         17O8s         17O9s         17O10s        17O1pz        17O1py        17O1px        17O2pz        17O2py     
  142   17O2px        17O3pz        17O3py        17O3px        17O4pz        17O4py        17O4px        17O5pz        17O5py        17O5px     
  143   17O6pz        17O6py        17O6px        17O7pz        17O7py        17O7px        17O8pz        17O8py        17O8px        17O1d-2    
  144   17O1d-1       17O1d0        17O1d+1       17O1d+2       17O2d-2       17O2d-1       17O2d0        17O2d+1       17O2d+2       17O3d-2    
  145   17O3d-1       17O3d0        17O3d+1       17O3d+2       17O4d-2       17O4d-1       17O4d0        17O4d+1       17O4d+2       17O1f-3    
  146   17O1f-2       17O1f-1       17O1f0        17O1f+1       17O1f+2       17O1f+3       17O2f-3       17O2f-2       17O2f-1       17O2f0     
  147   17O2f+1       17O2f+2       17O2f+3       17O1g-4       17O1g-3       17O1g-2       17O1g-1       17O1g0        17O1g+1       17O1g+2    
  148   17O1g+3       17O1g+4       18O1s         18O2s         18O3s         18O4s         18O5s         18O6s         18O7s         18O8s      
  149   18O9s         18O10s        18O1pz        18O1py        18O1px        18O2pz        18O2py        18O2px        18O3pz        18O3py     
  150   18O3px        18O4pz        18O4py        18O4px        18O5pz        18O5py        18O5px        18O6pz        18O6py        18O6px     
  151   18O7pz        18O7py        18O7px        18O8pz        18O8py        18O8px        18O1d-2       18O1d-1       18O1d0        18O1d+1    
  152   18O1d+2       18O2d-2       18O2d-1       18O2d0        18O2d+1       18O2d+2       18O3d-2       18O3d-1       18O3d0        18O3d+1    
  153   18O3d+2       18O4d-2       18O4d-1       18O4d0        18O4d+1       18O4d+2       18O1f-3       18O1f-2       18O1f-1       18O1f0     
  154   18O1f+1       18O1f+2       18O1f+3       18O2f-3       18O2f-2       18O2f-1       18O2f0        18O2f+1       18O2f+2       18O2f+3    
  155   18O1g-4       18O1g-3       18O1g-2       18O1g-1       18O1g0        18O1g+1       18O1g+2       18O1g+3       18O1g+4       19O1s      
  156   19O2s         19O3s         19O4s         19O5s         19O6s         19O7s         19O8s         19O9s         19O10s        19O1pz     
  157   19O1py        19O1px        19O2pz        19O2py        19O2px        19O3pz        19O3py        19O3px        19O4pz        19O4py     
  158   19O4px        19O5pz        19O5py        19O5px        19O6pz        19O6py        19O6px        19O7pz        19O7py        19O7px     
  159   19O8pz        19O8py        19O8px        19O1d-2       19O1d-1       19O1d0        19O1d+1       19O1d+2       19O2d-2       19O2d-1    
  160   19O2d0        19O2d+1       19O2d+2       19O3d-2       19O3d-1       19O3d0        19O3d+1       19O3d+2       19O4d-2       19O4d-1    
  161   19O4d0        19O4d+1       19O4d+2       19O1f-3       19O1f-2       19O1f-1       19O1f0        19O1f+1       19O1f+2       19O1f+3    
  162   19O2f-3       19O2f-2       19O2f-1       19O2f0        19O2f+1       19O2f+2       19O2f+3       19O1g-4       19O1g-3       19O1g-2    
  163   19O1g-1       19O1g0        19O1g+1       19O1g+2       19O1g+3       19O1g+4       20O1s         20O2s         20O3s         20O4s      
  164   20O5s         20O6s         20O7s         20O8s         20O9s         20O10s        20O1pz        20O1py        20O1px        20O2pz     
  165   20O2py        20O2px        20O3pz        20O3py        20O3px        20O4pz        20O4py        20O4px        20O5pz        20O5py     
  166   20O5px        20O6pz        20O6py        20O6px        20O7pz        20O7py        20O7px        20O8pz        20O8py        20O8px     
  167   20O1d-2       20O1d-1       20O1d0        20O1d+1       20O1d+2       20O2d-2       20O2d-1       20O2d0        20O2d+1       20O2d+2    
  168   20O3d-2       20O3d-1       20O3d0        20O3d+1       20O3d+2       20O4d-2       20O4d-1       20O4d0        20O4d+1       20O4d+2    
  169   20O1f-3       20O1f-2       20O1f-1       20O1f0        20O1f+1       20O1f+2       20O1f+3       20O2f-3       20O2f-2       20O2f-1    
  170   20O2f0        20O2f+1       20O2f+2       20O2f+3       20O1g-4       20O1g-3       20O1g-2       20O1g-1       20O1g0        20O1g+1    
  171   20O1g+2       20O1g+3       20O1g+4       21O1s         21O2s         21O3s         21O4s         21O5s         21O6s         21O7s      
  172   21O8s         21O9s         21O10s        21O1pz        21O1py        21O1px        21O2pz        21O2py        21O2px        21O3pz     
  173   21O3py        21O3px        21O4pz        21O4py        21O4px        21O5pz        21O5py        21O5px        21O6pz        21O6py     
  174   21O6px        21O7pz        21O7py        21O7px        21O8pz        21O8py        21O8px        21O1d-2       21O1d-1       21O1d0     
  175   21O1d+1       21O1d+2       21O2d-2       21O2d-1       21O2d0        21O2d+1       21O2d+2       21O3d-2       21O3d-1       21O3d0     
  176   21O3d+1       21O3d+2       21O4d-2       21O4d-1       21O4d0        21O4d+1       21O4d+2       21O1f-3       21O1f-2       21O1f-1    
  177   21O1f0        21O1f+1       21O1f+2       21O1f+3       21O2f-3       21O2f-2       21O2f-1       21O2f0        21O2f+1       21O2f+2    
  178   21O2f+3       21O1g-4       21O1g-3       21O1g-2       21O1g-1       21O1g0        21O1g+1       21O1g+2       21O1g+3       21O1g+4    
  179   22O1s         22O2s         22O3s         22O4s         22O5s         22O6s         22O7s         22O8s         22O9s         22O10s     
  180   22O1pz        22O1py        22O1px        22O2pz        22O2py        22O2px        22O3pz        22O3py        22O3px        22O4pz     
  181   22O4py        22O4px        22O5pz        22O5py        22O5px        22O6pz        22O6py        22O6px        22O7pz        22O7py     
  182   22O7px        22O8pz        22O8py        22O8px        22O1d-2       22O1d-1       22O1d0        22O1d+1       22O1d+2       22O2d-2    
  183   22O2d-1       22O2d0        22O2d+1       22O2d+2       22O3d-2       22O3d-1       22O3d0        22O3d+1       22O3d+2       22O4d-2    
  184   22O4d-1       22O4d0        22O4d+1       22O4d+2       22O1f-3       22O1f-2       22O1f-1       22O1f0        22O1f+1       22O1f+2    
  185   22O1f+3       22O2f-3       22O2f-2       22O2f-1       22O2f0        22O2f+1       22O2f+2       22O2f+3       22O1g-4       22O1g-3    
  186   22O1g-2       22O1g-1       22O1g0        22O1g+1       22O1g+2       22O1g+3       22O1g+4       23O1s         23O2s         23O3s      
  187   23O4s         23O5s         23O6s         23O7s         23O8s         23O9s         23O10s        23O1pz        23O1py        23O1px     
  188   23O2pz        23O2py        23O2px        23O3pz        23O3py        23O3px        23O4pz        23O4py        23O4px        23O5pz     
  189   23O5py        23O5px        23O6pz        23O6py        23O6px        23O7pz        23O7py        23O7px        23O8pz        23O8py     
  190   23O8px        23O1d-2       23O1d-1       23O1d0        23O1d+1       23O1d+2       23O2d-2       23O2d-1       23O2d0        23O2d+1    
  191   23O2d+2       23O3d-2       23O3d-1       23O3d0        23O3d+1       23O3d+2       23O4d-2       23O4d-1       23O4d0        23O4d+1    
  192   23O4d+2       23O1f-3       23O1f-2       23O1f-1       23O1f0        23O1f+1       23O1f+2       23O1f+3       23O2f-3       23O2f-2    
  193   23O2f-1       23O2f0        23O2f+1       23O2f+2       23O2f+3       23O1g-4       23O1g-3       23O1g-2       23O1g-1       23O1g0     
  194   23O1g+1       23O1g+2       23O1g+3       23O1g+4       24O1s         24O2s         24O3s         24O4s         24O5s         24O6s      
  195   24O7s         24O8s         24O9s         24O10s        24O1pz        24O1py        24O1px        24O2pz        24O2py        24O2px     
  196   24O3pz        24O3py        24O3px        24O4pz        24O4py        24O4px        24O5pz        24O5py        24O5px        24O6pz     
  197   24O6py        24O6px        24O7pz        24O7py        24O7px        24O8pz        24O8py        24O8px        24O1d-2       24O1d-1    
  198   24O1d0        24O1d+1       24O1d+2       24O2d-2       24O2d-1       24O2d0        24O2d+1       24O2d+2       24O3d-2       24O3d-1    
  199   24O3d0        24O3d+1       24O3d+2       24O4d-2       24O4d-1       24O4d0        24O4d+1       24O4d+2       24O1f-3       24O1f-2    
  200   24O1f-1       24O1f0        24O1f+1       24O1f+2       24O1f+3       24O2f-3       24O2f-2       24O2f-1       24O2f0        24O2f+1    
  201   24O2f+2       24O2f+3       24O1g-4       24O1g-3       24O1g-2       24O1g-1       24O1g0        24O1g+1       24O1g+2       24O1g+3    
  202   24O1g+4    
 
 Maximum number of basis functions per shell:   35
 Total number of basis functions:   2021
 
 
 Initializing the SAD routines for the initial guess...
 Checking the files required for the initial guess...
 Atomic density files have been found for the atoms with the following serial numbers:
  
 Atomic density files have not been found for the atoms with the following serial numbers:
  1 2
 Generating SCFDENSITIES.C.def2-svp.0
 Generating SCFDENSITIES.O.def2-svp.0
 CPU time [min]:     0.120                   Wall time [min]:     0.208
 
 Character table for point group C1:
 
          E  
    A     1
 
 Number of basis functions per irrep:
    A     356
 
 
 Calculation of overlap integrals...
 CPU time [min]:     0.123                   Wall time [min]:     0.208
 
 Calculation of the square root of the overlap matrix...
 Minimum eigenvalue of the overlap matrix: 0.153490E-02
 CPU time [min]:     0.293                   Wall time [min]:     0.217
 
 Calculation of kinetic energy integrals...
 CPU time [min]:     0.295                   Wall time [min]:     0.217
 Calculation of dipole moment integrals...
 CPU time [min]:     0.298                   Wall time [min]:     0.217
 Calculation of nuclear attraction integrals...
 CPU time [min]:     0.301                   Wall time [min]:     0.217
 
 Calculation of prescreening integrals...
 CPU time [min]:     0.423                   Wall time [min]:     0.229
 
 Calculation of two-center Coulomb integrals...
   1% done.
  12% done.
  23% done.
  34% done.
  45% done.
  56% done.
  68% done.
  79% done.
  90% done.
 100% done.
 CPU time [min]:     0.509                   Wall time [min]:     0.231
 
 Cholesky decomposition of the two-center matrix...
 Reciprocal of the condition number:  0.606217E-06
 Warning! Ill-conditioned two-center integral matrix.
 This may result in convergence problems.
 CPU time [min]:     0.718                   Wall time [min]:     0.240
 
 
 Running small-basis SCF...

 ************************ 2023-04-26 01:19:34 *************************
 Executing scf...

 @scfsetup: integrals calculated directly
            mrcc/integ direct run
 @scfsetup: calculating on full matrices
            not using symmetry adapted basis
 @scfsetup: diis switched on
 @scfsetup: number of steps to extrapolate from  10
 @scfsetup: tolerance in energy deviation    0.100000E-05
            tolerance in density deviation    0.100000E-06
 @scfsetup: maximum number of iterations:1000
 @scfsetup: restricted closed shell hf calc
 @scfsetup: starting scf from superposition of atomic densities
 @scfsetup: occupation set:
            from initial orbitals
 @scfsetup: Parameter-set for SCF acceleration: normal
 @scfsetup: diis runs from iteration:   2
 @scfsetup: diis runs to iteration:1000
 @scfsetup: diis runs in every iteration
 @scfsetup: diiswatch is disabled                   
 @scfsetup: diis dtol criteria to switch on:      0.0000E+00
           (or the iteration number below is reached)
 @scfsetup: static damping scheme
            iteration step criteria to turn damping off: 3
 @scfsetup: dynamic level shifting
            tolarance in HOMO-LUMO gap:  0.200
            tolarance in density deviation:     0.0000E+00
            iteration step criteria to turn level shifting off: 8
 Allocation of 200.0 Gbytes of memory...
 ======================================================================
 ITERATION STEP   1
 CPU time [min]:     0.048                   Wall time [min]:     0.009
 

 SCF control                  : initial
 Damping factor/level shift   : 0.000/0.200
 DIIS [start/end/frequency]   :   2 /*** /  1

 Constructing Fock-matrix...
 
 Pipek-Mezey localization...
 Step  Convergence
   1   0.914991802583
   2   0.440584640749
   3   0.002977728063
   4   0.000000664520
 CPU time [min]:     0.098                   Wall time [min]:     0.011
 
 Constructing local fitting domains...
 Maximum number of atoms in fitting domains:   12
 Average number of atoms in fitting domains:    6.6
 
 First step of Coulomb + first step of exchange...
 Exchange contribution is evaluated for MOs 1 to 7.
   1% done.
  13% done.
  24% done.
  35% done.
  47% done.
  58% done.
  69% done.
  82% done.
  94% done.
 100% done.
 Fitting and assembly step of exchange...
 CPU time [min]:     0.540                   Wall time [min]:     0.028
 
 Second step of Coulomb...
   1% done.
  13% done.
  24% done.
  35% done.
  47% done.
  58% done.
  69% done.
  82% done.
  94% done.
 100% done.
 CPU time [min]:     0.690                   Wall time [min]:     0.033
 
 Gradient norm:      1.6037E+00
 RMS of [F,P]:                                         0.00595084349867
 RMS of difference density:                            0.00283530550356
 Gap [au]:  0.62221436
 ALPHA OCC:   7
 BETA  OCC:   7
 
 ***HARTREE-FOCK ENERGY IN STEP   1 IS       -112.4048875829973042 [AU]
 ======================================================================
 ITERATION STEP   2
 CPU time [min]:     0.729                   Wall time [min]:     0.034
 

 SCF control                  : diis
 Damping factor/level shift   : 0.000/0.000
 DIIS [start/end/frequency]   :   2 /*** /  1

 Constructing Fock-matrix...
 
 Pipek-Mezey localization...
 Step  Convergence
   1   0.071801399243
   2   0.059632714297
   3   0.000829101020
   4   0.000000186107
 CPU time [min]:     0.755                   Wall time [min]:     0.034
 
 Constructing local fitting domains...
 Maximum number of atoms in fitting domains:   12
 Average number of atoms in fitting domains:    7.1
 
 First step of Coulomb + first step of exchange...
 Exchange contribution is evaluated for MOs 1 to 7.
   1% done.
  13% done.
  24% done.
  35% done.
  47% done.
  58% done.
  69% done.
  82% done.
  94% done.
 100% done.
 Fitting and assembly step of exchange...
 CPU time [min]:     1.014                   Wall time [min]:     0.042
 
 Second step of Coulomb...
   1% done.
  13% done.
  24% done.
  35% done.
  47% done.
  58% done.
  69% done.
  82% done.
  94% done.
 100% done.
 CPU time [min]:     1.163                   Wall time [min]:     0.046
 
 Gradient norm:      1.1649E-01
 DIIS is running in this iteration step.
 RMS of [F,P]:                                         0.00074213088225
 RMS of difference density:                            0.00070691426715
 Gap [au]:  0.56843130
 ALPHA OCC:   7
 BETA  OCC:   7
 
 ***HARTREE-FOCK ENERGY IN STEP   2 IS       -112.6347265549775329 [AU]
 
 Step comparison  Energy Drift [au]  DIIS error drift  Gradient drift
        1            2.2984E-01         5.2087E-03       1.4872E+00
        2            1.1263E+02         1.0000E-07       1.4872E+00
 ======================================================================
 ITERATION STEP   3
 CPU time [min]:     1.196                   Wall time [min]:     0.047
 

 SCF control                  : diis
 Damping factor/level shift   : 0.000/0.000
 DIIS [start/end/frequency]   :   2 /*** /  1

 Constructing Fock-matrix...
 
 Pipek-Mezey localization...
 Step  Convergence
   1   0.597502124897
   2   0.111879219731
   3   0.003052105241
   4   0.000001705837
   5   0.000000000065
 CPU time [min]:     1.216                   Wall time [min]:     0.047
 
 Constructing local fitting domains...
 Local fitting domains are unchanged.
 
 First step of Coulomb + first step of exchange...
 Exchange contribution is evaluated for MOs 1 to 7.
   1% done.
  13% done.
  24% done.
  35% done.
  47% done.
  58% done.
  69% done.
  82% done.
  94% done.
 100% done.
 Fitting and assembly step of exchange...
 CPU time [min]:     1.473                   Wall time [min]:     0.054
 
 Second step of Coulomb...
   1% done.
  13% done.
  24% done.
  35% done.
  47% done.
  58% done.
  69% done.
  82% done.
  94% done.
 100% done.
 CPU time [min]:     1.637                   Wall time [min]:     0.059
 
 Gradient norm:      3.3349E-02
 DIIS is running in this iteration step.
 RMS of [F,P]:                                         0.00017630489193
 RMS of difference density:                            0.00017770548148
 Gap [au]:  0.58834659
 ALPHA OCC:   7
 BETA  OCC:   7
 
 ***HARTREE-FOCK ENERGY IN STEP   3 IS       -112.6434824076622618 [AU]
 
 Step comparison  Energy Drift [au]  DIIS error drift  Gradient drift
        2            8.7559E-03         5.6583E-04       8.3145E-02
 ======================================================================
 ITERATION STEP   4
 CPU time [min]:     1.668                   Wall time [min]:     0.060
 

 SCF control                  : diis
 Damping factor/level shift   : 0.000/0.000
 DIIS [start/end/frequency]   :   2 /*** /  1

 Constructing Fock-matrix...
 
 Pipek-Mezey localization...
 Step  Convergence
   1   0.589023534440
   2   0.383293010900
   3   0.081561790636
   4   0.000008906590
   5   0.000000001068
   6   0.000000000000
 CPU time [min]:     1.688                   Wall time [min]:     0.060
 
 Constructing local fitting domains...
 Local fitting domains are unchanged.
 
 First step of Coulomb + first step of exchange...
 Exchange contribution is evaluated for MOs 1 to 7.
   1% done.
  13% done.
  24% done.
  35% done.
  47% done.
  58% done.
  69% done.
  82% done.
  94% done.
 100% done.
 Fitting and assembly step of exchange...
 CPU time [min]:     1.946                   Wall time [min]:     0.068
 
 Second step of Coulomb...
   1% done.
  13% done.
  24% done.
  35% done.
  47% done.
  58% done.
  69% done.
  82% done.
  94% done.
 100% done.
 CPU time [min]:     2.096                   Wall time [min]:     0.072
 
 Gradient norm:      6.5433E-03
 DIIS is running in this iteration step.
 RMS of [F,P]:                                         0.00005268996483
 RMS of difference density:                            0.00007749456631
 Gap [au]:  0.58758714
 ALPHA OCC:   7
 BETA  OCC:   7
 
 ***HARTREE-FOCK ENERGY IN STEP   4 IS       -112.6441399800407055 [AU]
 
 Step comparison  Energy Drift [au]  DIIS error drift  Gradient drift
        3            6.5757E-04         1.2361E-04       2.6806E-02
 ======================================================================
 ITERATION STEP   5
 CPU time [min]:     2.126                   Wall time [min]:     0.073
 

 SCF control                  : diis
 Damping factor/level shift   : 0.000/0.000
 DIIS [start/end/frequency]   :   2 /*** /  1

 Constructing Fock-matrix...
 
 Pipek-Mezey localization...
 Step  Convergence
   1   0.558545290571
   2   0.556047501863
   3   0.001981721780
   4   0.000000216313
   5   0.000000000050
   6   0.000000000000
 CPU time [min]:     2.147                   Wall time [min]:     0.073
 
 Constructing local fitting domains...
 Local fitting domains are unchanged.
 
 First step of Coulomb + first step of exchange...
 Exchange contribution is evaluated for MOs 1 to 7.
   1% done.
  13% done.
  24% done.
  35% done.
  47% done.
  58% done.
  69% done.
  82% done.
  94% done.
 100% done.
 Fitting and assembly step of exchange...
 CPU time [min]:     2.404                   Wall time [min]:     0.080
 
 Second step of Coulomb...
   1% done.
  13% done.
  24% done.
  35% done.
  47% done.
  58% done.
  69% done.
  82% done.
  94% done.
 100% done.
 CPU time [min]:     2.553                   Wall time [min]:     0.085
 
 Gradient norm:      3.6617E-03
 DIIS is running in this iteration step.
 RMS of [F,P]:                                         0.00003087131985
 RMS of difference density:                            0.00002054412512
 Gap [au]:  0.58691217
 ALPHA OCC:   7
 BETA  OCC:   7
 
 ***HARTREE-FOCK ENERGY IN STEP   5 IS       -112.6442359449571455 [AU]
 
 Step comparison  Energy Drift [au]  DIIS error drift  Gradient drift
        4            9.5965E-05         2.1819E-05       2.8816E-03
 ======================================================================
 ITERATION STEP   6
 CPU time [min]:     2.585                   Wall time [min]:     0.085
 

 SCF control                  : diis
 Damping factor/level shift   : 0.000/0.000
 DIIS [start/end/frequency]   :   2 /*** /  1

 Constructing Fock-matrix...
 
 Pipek-Mezey localization...
 Step  Convergence
   1   0.259434555336
   2   0.069365095148
   3   0.183237078551
   4   0.000000143264
   5   0.000000000530
   6   0.000000000000
 CPU time [min]:     2.605                   Wall time [min]:     0.086
 
 Constructing local fitting domains...
 Local fitting domains are unchanged.
 
 First step of Coulomb + first step of exchange...
 Exchange contribution is evaluated for MOs 1 to 7.
   1% done.
  13% done.
  24% done.
  35% done.
  47% done.
  58% done.
  69% done.
  82% done.
  94% done.
 100% done.
 Fitting and assembly step of exchange...
 CPU time [min]:     2.863                   Wall time [min]:     0.093
 
 Second step of Coulomb...
   1% done.
  13% done.
  24% done.
  35% done.
  47% done.
  58% done.
  69% done.
  82% done.
  94% done.
 100% done.
 CPU time [min]:     3.011                   Wall time [min]:     0.097
 
 Gradient norm:      6.6546E-04
 DIIS is running in this iteration step.
 RMS of [F,P]:                                         0.00000535359249
 RMS of difference density:                            0.00001005342313
 Gap [au]:  0.58703796
 ALPHA OCC:   7
 BETA  OCC:   7
 
 ***HARTREE-FOCK ENERGY IN STEP   6 IS       -112.6442477507741415 [AU]
 
 Step comparison  Energy Drift [au]  DIIS error drift  Gradient drift
        5            1.1806E-05         2.5518E-05       2.9963E-03
 ======================================================================
 ITERATION STEP   7
 CPU time [min]:     3.062                   Wall time [min]:     0.099
 

 SCF control                  : diis
 Damping factor/level shift   : 0.000/0.000
 DIIS [start/end/frequency]   :   2 /*** /  1

 Constructing Fock-matrix...
 
 Pipek-Mezey localization...
 Step  Convergence
   1   0.548647864429
   2   0.547000050319
   3   0.000798509981
   4   0.000000031154
   5   0.000000000008
   6   0.000000000000
 CPU time [min]:     3.083                   Wall time [min]:     0.099
 
 Constructing local fitting domains...
 Local fitting domains are unchanged.
 
 First step of Coulomb + first step of exchange...
 Exchange contribution is evaluated for MOs 1 to 7.
   1% done.
  13% done.
  24% done.
  35% done.
  47% done.
  58% done.
  69% done.
  82% done.
  94% done.
 100% done.
 Fitting and assembly step of exchange...
 CPU time [min]:     3.340                   Wall time [min]:     0.107
 
 Second step of Coulomb...
   1% done.
  13% done.
  24% done.
  35% done.
  47% done.
  58% done.
  69% done.
  82% done.
  94% done.
 100% done.
 CPU time [min]:     3.489                   Wall time [min]:     0.111
 
 Gradient norm:      1.9301E-04
 DIIS is running in this iteration step.
 RMS of [F,P]:                                         0.00000115404598
 RMS of difference density:                            0.00000154707306
 Gap [au]:  0.58698518
 ALPHA OCC:   7
 BETA  OCC:   7
 
 ***HARTREE-FOCK ENERGY IN STEP   7 IS       -112.6442489111894218 [AU]
 
 Step comparison  Energy Drift [au]  DIIS error drift  Gradient drift
        6            1.1604E-06         4.1995E-06       4.7245E-04
 ======================================================================
 ITERATION STEP   8
 CPU time [min]:     3.521                   Wall time [min]:     0.112
 

 SCF control                  : diis
 Damping factor/level shift   : 0.000/0.000
 DIIS [start/end/frequency]   :   2 /*** /  1

 Constructing Fock-matrix...
 
 Pipek-Mezey localization...
 Step  Convergence
   1   0.102666870223
   2   0.098633882678
   3   0.002393616827
   4   0.000000341203
   5   0.000000000043
   6   0.000000000000
 CPU time [min]:     3.541                   Wall time [min]:     0.112
 
 Constructing local fitting domains...
 Local fitting domains are unchanged.
 
 First step of Coulomb + first step of exchange...
 Exchange contribution is evaluated for MOs 1 to 7.
   1% done.
  13% done.
  24% done.
  35% done.
  47% done.
  58% done.
  69% done.
  82% done.
  94% done.
 100% done.
 Fitting and assembly step of exchange...
 CPU time [min]:     3.799                   Wall time [min]:     0.119
 
 Second step of Coulomb...
   1% done.
  13% done.
  24% done.
  35% done.
  47% done.
  58% done.
  69% done.
  82% done.
  94% done.
 100% done.
 CPU time [min]:     3.961                   Wall time [min]:     0.124
 
 Gradient norm:      2.1943E-05
 DIIS is running in this iteration step.
 RMS of [F,P]:                                         0.00000014988775
 RMS of difference density:                            0.00000025490603
 Gap [au]:  0.58699211
 ALPHA OCC:   7
 BETA  OCC:   7
 
 ***HARTREE-FOCK ENERGY IN STEP   8 IS       -112.6442489418690798 [AU]
 
 Step comparison  Energy Drift [au]  DIIS error drift  Gradient drift
        7            3.0680E-08         1.0042E-06       1.7106E-04
 ======================================================================
 ITERATION STEP   9
 CPU time [min]:     3.992                   Wall time [min]:     0.125
 

 SCF control                  : diis
 Damping factor/level shift   : 0.000/0.000
 DIIS [start/end/frequency]   :   2 /*** /  1

 Constructing Fock-matrix...
 
 Pipek-Mezey localization...
 Step  Convergence
   1   0.582501702819
   2   0.582820824380
   3   0.005413125487
   4   0.000008282617
   5   0.000000001001
   6   0.000000000001
 CPU time [min]:     4.012                   Wall time [min]:     0.125
 
 Constructing local fitting domains...
 Local fitting domains are unchanged.
 
 First step of Coulomb + first step of exchange...
 Exchange contribution is evaluated for MOs 1 to 7.
   1% done.
  13% done.
  24% done.
  35% done.
  47% done.
  58% done.
  69% done.
  82% done.
  94% done.
 100% done.
 Fitting and assembly step of exchange...
 CPU time [min]:     4.270                   Wall time [min]:     0.133
 
 Second step of Coulomb...
   1% done.
  13% done.
  24% done.
  35% done.
  47% done.
  58% done.
  69% done.
  82% done.
  94% done.
 100% done.
 CPU time [min]:     4.431                   Wall time [min]:     0.137
 
 Gradient norm:      2.6447E-06
 DIIS is running in this iteration step.
 RMS of [F,P]:                                         0.00000002036365
 RMS of difference density:                            0.00000003813087
 Gap [au]:  0.58699110
 ALPHA OCC:   7
 BETA  OCC:   7
 
 ***HARTREE-FOCK ENERGY IN STEP   9 IS       -112.6442489424545101 [AU]
 
 Step comparison  Energy Drift [au]  DIIS error drift  Gradient drift
        8            5.8543E-10         1.2952E-07       1.9298E-05
 
 The SCF iteration has converged.
 An extra iteration will be performed to calculate accurate SCF energy.
 
 ======================================================================
 ITERATION STEP  10
 CPU time [min]:     4.465                   Wall time [min]:     0.138
 

 SCF control                  : diis
 Damping factor/level shift   : 0.000/0.000
 DIIS [start/end/frequency]   :   2 /*** /  1

 Constructing Fock-matrix...
 
 Pipek-Mezey localization...
 Step  Convergence
   1   0.134488020907
   2   0.125729395204
   3   0.005194282031
   4   0.000001860623
   5   0.000000000156
   6   0.000000000000
 CPU time [min]:     4.486                   Wall time [min]:     0.139
 
 Constructing local fitting domains...
 Maximum number of atoms in fitting domains:   24
 Average number of atoms in fitting domains:   22.1
 
 First step of Coulomb + first step of exchange...
 Exchange contribution is evaluated for MOs 1 to 7.
   1% done.
  13% done.
  24% done.
  35% done.
  47% done.
  58% done.
  69% done.
  82% done.
  94% done.
 100% done.
 Fitting and assembly step of exchange...
 CPU time [min]:     4.882                   Wall time [min]:     0.150
 
 Second step of Coulomb...
   1% done.
  13% done.
  24% done.
  35% done.
  47% done.
  58% done.
  69% done.
  82% done.
  94% done.
 100% done.
 CPU time [min]:     5.044                   Wall time [min]:     0.154
 
 Gradient norm:      3.8052E-05
 RMS of [F,P]:                                         0.00000017109812
 RMS of difference density:                            0.00000029841874
 Gap [au]:  0.58699224
 ALPHA OCC:   7
 BETA  OCC:   7
 
 ***HARTREE-FOCK ENERGY IN STEP  10 IS       -112.6442539423776310 [AU]
 
 Step comparison  Energy Drift [au]  DIIS error drift  Gradient drift
        9            4.9999E-06        -1.5073E-07      -3.5407E-05
 Warning! The DIIS error goes uphill (with respect to previous step).
 Warning! The DIIS error goes uphill (with respect to step   9 ).
 Warning! The gradient goes uphill (with respect to previous step).
 Warning! The gradient goes uphill (with respect to step   9 ).
 ======================================================================
 
 SUCCESS...
 THE SCF ITERATION HAS CONVERGED!
 
                   A   
 FINAL ALPHA OCC:   7
 FINAL BETA  OCC:   7
 
 ***FINAL HARTREE-FOCK ENERGY:       -112.6442539423776310 [AU]
 
 Orbital energies [au]:
      Irrep         Alpha          Beta
    1   A        -20.669812     -20.669812
    2   A        -11.380330     -11.380330
    3   A         -1.498374      -1.498374
    4   A         -0.797790      -0.797790
    5   A         -0.636662      -0.636662
    6   A         -0.636662      -0.636662
    7   A         -0.554631      -0.554631
 
    8   A          0.032361       0.032361
    9   A          0.045239       0.045239
   10   A          0.045239       0.045239
   11   A          0.071850       0.071850
   12   A          0.086151       0.086151
   13   A          0.106645       0.106645
   14   A          0.106645       0.106645
   15   A          0.110664       0.110664
   16   A          0.119442       0.119442
   17   A          0.135215       0.135215
   18   A          0.135215       0.135215
   19   A          0.152541       0.152541
   20   A          0.152541       0.152541
   21   A          0.159992       0.159992
   22   A          0.177987       0.177987
   23   A          0.180058       0.180058
   24   A          0.180058       0.180058
   25   A          0.201193       0.201193
   26   A          0.207769       0.207769
   27   A          0.207769       0.207769
   28   A          0.210524       0.210524
   29   A          0.215798       0.215798
   30   A          0.223600       0.223600
   31   A          0.226395       0.226395
   32   A          0.287451       0.287451
   33   A          0.304532       0.304532
   34   A          0.312210       0.312210
   35   A          0.328164       0.328164
   36   A          0.328164       0.328164
   37   A          0.338484       0.338484
   38   A          0.338484       0.338484
   39   A          0.351646       0.351646
   40   A          0.355812       0.355812
   41   A          0.355812       0.355812
   42   A          0.379411       0.379411
   43   A          0.405738       0.405738
   44   A          0.405738       0.405738
   45   A          0.422932       0.422932
   46   A          0.425925       0.425925
   47   A          0.429331       0.429331
   48   A          0.444745       0.444745
   49   A          0.444745       0.444745
   50   A          0.448095       0.448095
   51   A          0.453103       0.453103
   52   A          0.490475       0.490475
   53   A          0.491461       0.491461
   54   A          0.491461       0.491461
   55   A          0.491464       0.491464
   56   A          0.505000       0.505000
   57   A          0.505000       0.505000
   58   A          0.507310       0.507310
   59   A          0.515950       0.515950
   60   A          0.522567       0.522567
   61   A          0.522567       0.522567
   62   A          0.527619       0.527619
   63   A          0.555281       0.555281
   64   A          0.561360       0.561360
   65   A          0.561360       0.561360
   66   A          0.581029       0.581029
   67   A          0.581029       0.581029
   68   A          0.583322       0.583322
   69   A          0.585785       0.585785
   70   A          0.606134       0.606134
   71   A          0.626242       0.626242
   72   A          0.628289       0.628289
   73   A          0.634984       0.634984
   74   A          0.663024       0.663024
   75   A          0.663024       0.663024
   76   A          0.680594       0.680594
   77   A          0.680594       0.680594
   78   A          0.690252       0.690252
   79   A          0.708435       0.708435
   80   A          0.710315       0.710315
   81   A          0.710829       0.710829
   82   A          0.713459       0.713459
   83   A          0.713459       0.713459
   84   A          0.715623       0.715623
   85   A          0.746158       0.746158
   86   A          0.746158       0.746158
   87   A          0.753598       0.753598
   88   A          0.754011       0.754011
   89   A          0.754011       0.754011
   90   A          0.787000       0.787000
   91   A          0.787000       0.787000
   92   A          0.797222       0.797222
   93   A          0.803216       0.803216
   94   A          0.803425       0.803425
   95   A          0.809375       0.809375
   96   A          0.830744       0.830744
   97   A          0.833866       0.833866
   98   A          0.833866       0.833866
   99   A          0.839024       0.839024
  100   A          0.843839       0.843839
  101   A          0.843839       0.843839
  102   A          0.849083       0.849083
  103   A          0.873366       0.873366
  104   A          0.890127       0.890127
  105   A          0.905622       0.905622
  106   A          0.905622       0.905622
  107   A          0.909573       0.909573
  108   A          0.917254       0.917254
  109   A          0.917254       0.917254
  110   A          0.917569       0.917569
  111   A          0.919820       0.919820
  112   A          0.945885       0.945885
  113   A          0.945885       0.945885
  114   A          0.962590       0.962590
  115   A          0.966562       0.966562
  116   A          0.984413       0.984413
  117   A          0.986151       0.986151
  118   A          0.986151       0.986151
  119   A          0.993156       0.993156
  120   A          1.002879       1.002879
  121   A          1.009258       1.009258
  122   A          1.009258       1.009258
  123   A          1.034312       1.034312
  124   A          1.072779       1.072779
  125   A          1.074472       1.074472
  126   A          1.074472       1.074472
  127   A          1.094128       1.094128
  128   A          1.095357       1.095357
  129   A          1.095750       1.095750
  130   A          1.099237       1.099237
  131   A          1.099237       1.099237
  132   A          1.124725       1.124725
  133   A          1.130695       1.130695
  134   A          1.139715       1.139715
  135   A          1.139715       1.139715
  136   A          1.152967       1.152967
  137   A          1.164142       1.164142
  138   A          1.198160       1.198160
  139   A          1.198160       1.198160
  140   A          1.229654       1.229654
  141   A          1.229654       1.229654
  142   A          1.234355       1.234355
  143   A          1.298756       1.298756
  144   A          1.327346       1.327346
  145   A          1.354667       1.354667
  146   A          1.354667       1.354667
  147   A          1.390222       1.390222
  148   A          1.390222       1.390222
  149   A          1.392461       1.392461
  150   A          1.393448       1.393448
  151   A          1.743855       1.743855
  152   A          1.909920       1.909920
  153   A          1.914316       1.914316
  154   A          1.988370       1.988370
  155   A          1.988370       1.988370
  156   A          2.261589       2.261589
  157   A          2.273323       2.273323
  158   A          2.273323       2.273323
  159   A          2.279578       2.279578
  160   A          2.308739       2.308739
  161   A          2.312535       2.312535
  162   A          2.312535       2.312535
  163   A          2.334393       2.334393
  164   A          2.361583       2.361583
  165   A          2.368811       2.368811
  166   A          2.368811       2.368811
  167   A          2.373390       2.373390
  168   A          2.412388       2.412388
  169   A          2.471325       2.471325
  170   A          2.509864       2.509864
  171   A          2.509864       2.509864
  172   A          2.548067       2.548067
  173   A          2.771529       2.771529
  174   A          2.959453       2.959453
  175   A          2.960506       2.960506
  176   A          3.180621       3.180621
  177   A          3.200387       3.200387
  178   A          3.200387       3.200387
  179   A          3.263633       3.263633
  180   A          3.323611       3.323611
  181   A          3.538893       3.538893
  182   A          3.538893       3.538893
  183   A          4.024843       4.024843
  184   A          4.199181       4.199181
  185   A          4.199183       4.199183
  186   A          4.199184       4.199184
  187   A          4.199184       4.199184
  188   A          4.199268       4.199268
  189   A          4.199268       4.199268
  190   A          4.199293       4.199293
  191   A          4.199398       4.199398
  192   A          4.199512       4.199512
  193   A          4.199517       4.199517
  194   A          4.199517       4.199517
  195   A          4.199540       4.199540
  196   A          4.199547       4.199547
  197   A          4.199596       4.199596
  198   A          4.199596       4.199596
  199   A          4.199675       4.199675
  200   A          4.199876       4.199876
  201   A          4.199876       4.199876
  202   A          4.199993       4.199993
  203   A          4.200261       4.200261
  204   A          4.200313       4.200313
  205   A          4.200341       4.200341
  206   A          4.200373       4.200373
  207   A          4.200415       4.200415
  208   A          4.200415       4.200415
  209   A          4.200533       4.200533
  210   A          4.200938       4.200938
  211   A          4.202970       4.202970
  212   A          4.202970       4.202970
  213   A          4.203073       4.203073
  214   A          4.204124       4.204124
  215   A          4.205158       4.205158
  216   A          4.205158       4.205158
  217   A          4.205681       4.205681
  218   A          4.205742       4.205742
  219   A          4.205742       4.205742
  220   A          4.206987       4.206987
  221   A          4.207805       4.207805
  222   A          4.212165       4.212165
  223   A          4.212165       4.212165
  224   A          4.215178       4.215178
  225   A          4.218832       4.218832
  226   A          4.219717       4.219717
  227   A          4.219717       4.219717
  228   A          4.227614       4.227614
  229   A          4.230827       4.230827
  230   A          4.231678       4.231678
  231   A          4.237393       4.237393
  232   A          4.239825       4.239825
  233   A          4.239825       4.239825
  234   A          4.246892       4.246892
  235   A          4.246892       4.246892
  236   A          4.250283       4.250283
  237   A          4.250283       4.250283
  238   A          4.250745       4.250745
  239   A          4.256531       4.256531
  240   A          4.264786       4.264786
  241   A          4.268417       4.268417
  242   A          4.271148       4.271148
  243   A          4.271148       4.271148
  244   A          4.271731       4.271731
  245   A          4.272482       4.272482
[...]
  371   20O7d-2       20O7d-1       20O7d0        20O7d+1       20O7d+2       20O1f-3       20O1f-2       20O1f-1       20O1f0        20O1f+1    
  372   20O1f+2       20O1f+3       20O2f-3       20O2f-2       20O2f-1       20O2f0        20O2f+1       20O2f+2       20O2f+3       20O3f-3    
  373   20O3f-2       20O3f-1       20O3f0        20O3f+1       20O3f+2       20O3f+3       20O4f-3       20O4f-2       20O4f-1       20O4f0     
  374   20O4f+1       20O4f+2       20O4f+3       20O5f-3       20O5f-2       20O5f-1       20O5f0        20O5f+1       20O5f+2       20O5f+3    
  375   20O6f-3       20O6f-2       20O6f-1       20O6f0        20O6f+1       20O6f+2       20O6f+3       20O1g-4       20O1g-3       20O1g-2    
  376   20O1g-1       20O1g0        20O1g+1       20O1g+2       20O1g+3       20O1g+4       20O2g-4       20O2g-3       20O2g-2       20O2g-1    
  377   20O2g0        20O2g+1       20O2g+2       20O2g+3       20O2g+4       20O3g-4       20O3g-3       20O3g-2       20O3g-1       20O3g0     
  378   20O3g+1       20O3g+2       20O3g+3       20O3g+4       20O4g-4       20O4g-3       20O4g-2       20O4g-1       20O4g0        20O4g+1    
  379   20O4g+2       20O4g+3       20O4g+4       20O1h-5       20O1h-4       20O1h-3       20O1h-2       20O1h-1       20O1h0        20O1h+1    
  380   20O1h+2       20O1h+3       20O1h+4       20O1h+5       20O2h-5       20O2h-4       20O2h-3       20O2h-2       20O2h-1       20O2h0     
  381   20O2h+1       20O2h+2       20O2h+3       20O2h+4       20O2h+5       21O1s         21O2s         21O3s         21O4s         21O5s      
  382   21O6s         21O7s         21O8s         21O9s         21O1pz        21O1py        21O1px        21O2pz        21O2py        21O2px     
  383   21O3pz        21O3py        21O3px        21O4pz        21O4py        21O4px        21O5pz        21O5py        21O5px        21O6pz     
  384   21O6py        21O6px        21O7pz        21O7py        21O7px        21O8pz        21O8py        21O8px        21O1d-2       21O1d-1    
  385   21O1d0        21O1d+1       21O1d+2       21O2d-2       21O2d-1       21O2d0        21O2d+1       21O2d+2       21O3d-2       21O3d-1    
  386   21O3d0        21O3d+1       21O3d+2       21O4d-2       21O4d-1       21O4d0        21O4d+1       21O4d+2       21O5d-2       21O5d-1    
  387   21O5d0        21O5d+1       21O5d+2       21O6d-2       21O6d-1       21O6d0        21O6d+1       21O6d+2       21O7d-2       21O7d-1    
  388   21O7d0        21O7d+1       21O7d+2       21O1f-3       21O1f-2       21O1f-1       21O1f0        21O1f+1       21O1f+2       21O1f+3    
  389   21O2f-3       21O2f-2       21O2f-1       21O2f0        21O2f+1       21O2f+2       21O2f+3       21O3f-3       21O3f-2       21O3f-1    
  390   21O3f0        21O3f+1       21O3f+2       21O3f+3       21O4f-3       21O4f-2       21O4f-1       21O4f0        21O4f+1       21O4f+2    
  391   21O4f+3       21O5f-3       21O5f-2       21O5f-1       21O5f0        21O5f+1       21O5f+2       21O5f+3       21O6f-3       21O6f-2    
  392   21O6f-1       21O6f0        21O6f+1       21O6f+2       21O6f+3       21O1g-4       21O1g-3       21O1g-2       21O1g-1       21O1g0     
  393   21O1g+1       21O1g+2       21O1g+3       21O1g+4       21O2g-4       21O2g-3       21O2g-2       21O2g-1       21O2g0        21O2g+1    
  394   21O2g+2       21O2g+3       21O2g+4       21O3g-4       21O3g-3       21O3g-2       21O3g-1       21O3g0        21O3g+1       21O3g+2    
  395   21O3g+3       21O3g+4       21O4g-4       21O4g-3       21O4g-2       21O4g-1       21O4g0        21O4g+1       21O4g+2       21O4g+3    
  396   21O4g+4       21O1h-5       21O1h-4       21O1h-3       21O1h-2       21O1h-1       21O1h0        21O1h+1       21O1h+2       21O1h+3    
  397   21O1h+4       21O1h+5       21O2h-5       21O2h-4       21O2h-3       21O2h-2       21O2h-1       21O2h0        21O2h+1       21O2h+2    
  398   21O2h+3       21O2h+4       21O2h+5       22O1s         22O2s         22O3s         22O4s         22O5s         22O6s         22O7s      
  399   22O8s         22O9s         22O1pz        22O1py        22O1px        22O2pz        22O2py        22O2px        22O3pz        22O3py     
  400   22O3px        22O4pz        22O4py        22O4px        22O5pz        22O5py        22O5px        22O6pz        22O6py        22O6px     
  401   22O7pz        22O7py        22O7px        22O8pz        22O8py        22O8px        22O1d-2       22O1d-1       22O1d0        22O1d+1    
  402   22O1d+2       22O2d-2       22O2d-1       22O2d0        22O2d+1       22O2d+2       22O3d-2       22O3d-1       22O3d0        22O3d+1    
  403   22O3d+2       22O4d-2       22O4d-1       22O4d0        22O4d+1       22O4d+2       22O5d-2       22O5d-1       22O5d0        22O5d+1    
  404   22O5d+2       22O6d-2       22O6d-1       22O6d0        22O6d+1       22O6d+2       22O7d-2       22O7d-1       22O7d0        22O7d+1    
  405   22O7d+2       22O1f-3       22O1f-2       22O1f-1       22O1f0        22O1f+1       22O1f+2       22O1f+3       22O2f-3       22O2f-2    
  406   22O2f-1       22O2f0        22O2f+1       22O2f+2       22O2f+3       22O3f-3       22O3f-2       22O3f-1       22O3f0        22O3f+1    
  407   22O3f+2       22O3f+3       22O4f-3       22O4f-2       22O4f-1       22O4f0        22O4f+1       22O4f+2       22O4f+3       22O5f-3    
  408   22O5f-2       22O5f-1       22O5f0        22O5f+1       22O5f+2       22O5f+3       22O6f-3       22O6f-2       22O6f-1       22O6f0     
  409   22O6f+1       22O6f+2       22O6f+3       22O1g-4       22O1g-3       22O1g-2       22O1g-1       22O1g0        22O1g+1       22O1g+2    
  410   22O1g+3       22O1g+4       22O2g-4       22O2g-3       22O2g-2       22O2g-1       22O2g0        22O2g+1       22O2g+2       22O2g+3    
  411   22O2g+4       22O3g-4       22O3g-3       22O3g-2       22O3g-1       22O3g0        22O3g+1       22O3g+2       22O3g+3       22O3g+4    
  412   22O4g-4       22O4g-3       22O4g-2       22O4g-1       22O4g0        22O4g+1       22O4g+2       22O4g+3       22O4g+4       22O1h-5    
  413   22O1h-4       22O1h-3       22O1h-2       22O1h-1       22O1h0        22O1h+1       22O1h+2       22O1h+3       22O1h+4       22O1h+5    
  414   22O2h-5       22O2h-4       22O2h-3       22O2h-2       22O2h-1       22O2h0        22O2h+1       22O2h+2       22O2h+3       22O2h+4    
  415   22O2h+5       23O1s         23O2s         23O3s         23O4s         23O5s         23O6s         23O7s         23O8s         23O9s      
  416   23O1pz        23O1py        23O1px        23O2pz        23O2py        23O2px        23O3pz        23O3py        23O3px        23O4pz     
  417   23O4py        23O4px        23O5pz        23O5py        23O5px        23O6pz        23O6py        23O6px        23O7pz        23O7py     
  418   23O7px        23O8pz        23O8py        23O8px        23O1d-2       23O1d-1       23O1d0        23O1d+1       23O1d+2       23O2d-2    
  419   23O2d-1       23O2d0        23O2d+1       23O2d+2       23O3d-2       23O3d-1       23O3d0        23O3d+1       23O3d+2       23O4d-2    
  420   23O4d-1       23O4d0        23O4d+1       23O4d+2       23O5d-2       23O5d-1       23O5d0        23O5d+1       23O5d+2       23O6d-2    
  421   23O6d-1       23O6d0        23O6d+1       23O6d+2       23O7d-2       23O7d-1       23O7d0        23O7d+1       23O7d+2       23O1f-3    
  422   23O1f-2       23O1f-1       23O1f0        23O1f+1       23O1f+2       23O1f+3       23O2f-3       23O2f-2       23O2f-1       23O2f0     
  423   23O2f+1       23O2f+2       23O2f+3       23O3f-3       23O3f-2       23O3f-1       23O3f0        23O3f+1       23O3f+2       23O3f+3    
  424   23O4f-3       23O4f-2       23O4f-1       23O4f0        23O4f+1       23O4f+2       23O4f+3       23O5f-3       23O5f-2       23O5f-1    
  425   23O5f0        23O5f+1       23O5f+2       23O5f+3       23O6f-3       23O6f-2       23O6f-1       23O6f0        23O6f+1       23O6f+2    
  426   23O6f+3       23O1g-4       23O1g-3       23O1g-2       23O1g-1       23O1g0        23O1g+1       23O1g+2       23O1g+3       23O1g+4    
  427   23O2g-4       23O2g-3       23O2g-2       23O2g-1       23O2g0        23O2g+1       23O2g+2       23O2g+3       23O2g+4       23O3g-4    
  428   23O3g-3       23O3g-2       23O3g-1       23O3g0        23O3g+1       23O3g+2       23O3g+3       23O3g+4       23O4g-4       23O4g-3    
  429   23O4g-2       23O4g-1       23O4g0        23O4g+1       23O4g+2       23O4g+3       23O4g+4       23O1h-5       23O1h-4       23O1h-3    
  430   23O1h-2       23O1h-1       23O1h0        23O1h+1       23O1h+2       23O1h+3       23O1h+4       23O1h+5       23O2h-5       23O2h-4    
  431   23O2h-3       23O2h-2       23O2h-1       23O2h0        23O2h+1       23O2h+2       23O2h+3       23O2h+4       23O2h+5       24O1s      
  432   24O2s         24O3s         24O4s         24O5s         24O6s         24O7s         24O8s         24O9s         24O1pz        24O1py     
  433   24O1px        24O2pz        24O2py        24O2px        24O3pz        24O3py        24O3px        24O4pz        24O4py        24O4px     
  434   24O5pz        24O5py        24O5px        24O6pz        24O6py        24O6px        24O7pz        24O7py        24O7px        24O8pz     
  435   24O8py        24O8px        24O1d-2       24O1d-1       24O1d0        24O1d+1       24O1d+2       24O2d-2       24O2d-1       24O2d0     
  436   24O2d+1       24O2d+2       24O3d-2       24O3d-1       24O3d0        24O3d+1       24O3d+2       24O4d-2       24O4d-1       24O4d0     
  437   24O4d+1       24O4d+2       24O5d-2       24O5d-1       24O5d0        24O5d+1       24O5d+2       24O6d-2       24O6d-1       24O6d0     
  438   24O6d+1       24O6d+2       24O7d-2       24O7d-1       24O7d0        24O7d+1       24O7d+2       24O1f-3       24O1f-2       24O1f-1    
  439   24O1f0        24O1f+1       24O1f+2       24O1f+3       24O2f-3       24O2f-2       24O2f-1       24O2f0        24O2f+1       24O2f+2    
  440   24O2f+3       24O3f-3       24O3f-2       24O3f-1       24O3f0        24O3f+1       24O3f+2       24O3f+3       24O4f-3       24O4f-2    
  441   24O4f-1       24O4f0        24O4f+1       24O4f+2       24O4f+3       24O5f-3       24O5f-2       24O5f-1       24O5f0        24O5f+1    
  442   24O5f+2       24O5f+3       24O6f-3       24O6f-2       24O6f-1       24O6f0        24O6f+1       24O6f+2       24O6f+3       24O1g-4    
  443   24O1g-3       24O1g-2       24O1g-1       24O1g0        24O1g+1       24O1g+2       24O1g+3       24O1g+4       24O2g-4       24O2g-3    
  444   24O2g-2       24O2g-1       24O2g0        24O2g+1       24O2g+2       24O2g+3       24O2g+4       24O3g-4       24O3g-3       24O3g-2    
  445   24O3g-1       24O3g0        24O3g+1       24O3g+2       24O3g+3       24O3g+4       24O4g-4       24O4g-3       24O4g-2       24O4g-1    
  446   24O4g0        24O4g+1       24O4g+2       24O4g+3       24O4g+4       24O1h-5       24O1h-4       24O1h-3       24O1h-2       24O1h-1    
  447   24O1h0        24O1h+1       24O1h+2       24O1h+3       24O1h+4       24O1h+5       24O2h-5       24O2h-4       24O2h-3       24O2h-2    
  448   24O2h-1       24O2h0        24O2h+1       24O2h+2       24O2h+3       24O2h+4       24O2h+5    
 
 Maximum number of basis functions per shell:   63
 Total number of basis functions:   4487
 
 
 Old basis set for SCF restart
 
   1  C  def2-svp [ 7s 4p 1d | 3s 2p 1d ]
   2  O  def2-svp [ 7s 4p 1d | 3s 2p 1d ]
   3  Mg def2-svp [ 10s 7p 1d | 4s 3p 1d ]
   4  O  def2-svp [ 7s 4p 1d | 3s 2p 1d ]
   5  O  def2-svp [ 7s 4p 1d | 3s 2p 1d ]
   6  O  def2-svp [ 7s 4p 1d | 3s 2p 1d ]
   7  O  def2-svp [ 7s 4p 1d | 3s 2p 1d ]
   8  O  def2-svp [ 7s 4p 1d | 3s 2p 1d ]
   9  Mg def2-svp [ 10s 7p 1d | 4s 3p 1d ]
  10  Mg def2-svp [ 10s 7p 1d | 4s 3p 1d ]
  11  Mg def2-svp [ 10s 7p 1d | 4s 3p 1d ]
  12  Mg def2-svp [ 10s 7p 1d | 4s 3p 1d ]
  13  O  def2-svp [ 7s 4p 1d | 3s 2p 1d ]
  14  O  def2-svp [ 7s 4p 1d | 3s 2p 1d ]
  15  O  def2-svp [ 7s 4p 1d | 3s 2p 1d ]
  16  O  def2-svp [ 7s 4p 1d | 3s 2p 1d ]
  17  O  def2-svp [ 7s 4p 1d | 3s 2p 1d ]
  18  O  def2-svp [ 7s 4p 1d | 3s 2p 1d ]
  19  O  def2-svp [ 7s 4p 1d | 3s 2p 1d ]
  20  O  def2-svp [ 7s 4p 1d | 3s 2p 1d ]
  21  O  def2-svp [ 7s 4p 1d | 3s 2p 1d ]
  22  O  def2-svp [ 7s 4p 1d | 3s 2p 1d ]
  23  O  def2-svp [ 7s 4p 1d | 3s 2p 1d ]
  24  O  def2-svp [ 7s 4p 1d | 3s 2p 1d ]
 
 Basis functions:
            1             2             3             4             5             6             7             8             9            10
    0    1C1s          1C2s          1C3s          1C1pz         1C1py         1C1px         1C2pz         1C2py         1C2px         1C1d-2    
    1    1C1d-1        1C1d0         1C1d+1        1C1d+2        2O1s          2O2s          2O3s          2O1pz         2O1py         2O1px     
    2    2O2pz         2O2py         2O2px         2O1d-2        2O1d-1        2O1d0         2O1d+1        2O1d+2        3Mg1s         3Mg2s     
    3    3Mg3s         3Mg4s         3Mg1pz        3Mg1py        3Mg1px        3Mg2pz        3Mg2py        3Mg2px        3Mg3pz        3Mg3py    
    4    3Mg3px        3Mg1d-2       3Mg1d-1       3Mg1d0        3Mg1d+1       3Mg1d+2       4O1s          4O2s          4O3s          4O1pz     
    5    4O1py         4O1px         4O2pz         4O2py         4O2px         4O1d-2        4O1d-1        4O1d0         4O1d+1        4O1d+2    
    6    5O1s          5O2s          5O3s          5O1pz         5O1py         5O1px         5O2pz         5O2py         5O2px         5O1d-2    
    7    5O1d-1        5O1d0         5O1d+1        5O1d+2        6O1s          6O2s          6O3s          6O1pz         6O1py         6O1px     
    8    6O2pz         6O2py         6O2px         6O1d-2        6O1d-1        6O1d0         6O1d+1        6O1d+2        7O1s          7O2s      
    9    7O3s          7O1pz         7O1py         7O1px         7O2pz         7O2py         7O2px         7O1d-2        7O1d-1        7O1d0     
   10    7O1d+1        7O1d+2        8O1s          8O2s          8O3s          8O1pz         8O1py         8O1px         8O2pz         8O2py     
   11    8O2px         8O1d-2        8O1d-1        8O1d0         8O1d+1        8O1d+2        9Mg1s         9Mg2s         9Mg3s         9Mg4s     
   12    9Mg1pz        9Mg1py        9Mg1px        9Mg2pz        9Mg2py        9Mg2px        9Mg3pz        9Mg3py        9Mg3px        9Mg1d-2   
   13    9Mg1d-1       9Mg1d0        9Mg1d+1       9Mg1d+2      10Mg1s        10Mg2s        10Mg3s        10Mg4s        10Mg1pz       10Mg1py    
   14   10Mg1px       10Mg2pz       10Mg2py       10Mg2px       10Mg3pz       10Mg3py       10Mg3px       10Mg1d-2      10Mg1d-1      10Mg1d0    
   15   10Mg1d+1      10Mg1d+2      11Mg1s        11Mg2s        11Mg3s        11Mg4s        11Mg1pz       11Mg1py       11Mg1px       11Mg2pz    
   16   11Mg2py       11Mg2px       11Mg3pz       11Mg3py       11Mg3px       11Mg1d-2      11Mg1d-1      11Mg1d0       11Mg1d+1      11Mg1d+2   
   17   12Mg1s        12Mg2s        12Mg3s        12Mg4s        12Mg1pz       12Mg1py       12Mg1px       12Mg2pz       12Mg2py       12Mg2px    
   18   12Mg3pz       12Mg3py       12Mg3px       12Mg1d-2      12Mg1d-1      12Mg1d0       12Mg1d+1      12Mg1d+2      13O1s         13O2s      
   19   13O3s         13O1pz        13O1py        13O1px        13O2pz        13O2py        13O2px        13O1d-2       13O1d-1       13O1d0     
   20   13O1d+1       13O1d+2       14O1s         14O2s         14O3s         14O1pz        14O1py        14O1px        14O2pz        14O2py     
   21   14O2px        14O1d-2       14O1d-1       14O1d0        14O1d+1       14O1d+2       15O1s         15O2s         15O3s         15O1pz     
   22   15O1py        15O1px        15O2pz        15O2py        15O2px        15O1d-2       15O1d-1       15O1d0        15O1d+1       15O1d+2    
   23   16O1s         16O2s         16O3s         16O1pz        16O1py        16O1px        16O2pz        16O2py        16O2px        16O1d-2    
   24   16O1d-1       16O1d0        16O1d+1       16O1d+2       17O1s         17O2s         17O3s         17O1pz        17O1py        17O1px     
   25   17O2pz        17O2py        17O2px        17O1d-2       17O1d-1       17O1d0        17O1d+1       17O1d+2       18O1s         18O2s      
   26   18O3s         18O1pz        18O1py        18O1px        18O2pz        18O2py        18O2px        18O1d-2       18O1d-1       18O1d0     
   27   18O1d+1       18O1d+2       19O1s         19O2s         19O3s         19O1pz        19O1py        19O1px        19O2pz        19O2py     
   28   19O2px        19O1d-2       19O1d-1       19O1d0        19O1d+1       19O1d+2       20O1s         20O2s         20O3s         20O1pz     
   29   20O1py        20O1px        20O2pz        20O2py        20O2px        20O1d-2       20O1d-1       20O1d0        20O1d+1       20O1d+2    
   30   21O1s         21O2s         21O3s         21O1pz        21O1py        21O1px        21O2pz        21O2py        21O2px        21O1d-2    
   31   21O1d-1       21O1d0        21O1d+1       21O1d+2       22O1s         22O2s         22O3s         22O1pz        22O1py        22O1px     
   32   22O2pz        22O2py        22O2px        22O1d-2       22O1d-1       22O1d0        22O1d+1       22O1d+2       23O1s         23O2s      
   33   23O3s         23O1pz        23O1py        23O1px        23O2pz        23O2py        23O2px        23O1d-2       23O1d-1       23O1d0     
   34   23O1d+1       23O1d+2       24O1s         24O2s         24O3s         24O1pz        24O1py        24O1px        24O2pz        24O2py     
   35   24O2px        24O1d-2       24O1d-1       24O1d0        24O1d+1       24O1d+2    
 
 Maximum number of basis functions per shell:   63
 Total number of basis functions:    356
 
 
 Calculation of prescreening integrals...
 CPU time [min]:    52.027                   Wall time [min]:     1.459
 
 Calculation of two-center Coulomb integrals...
   1% done.
  12% done.
  24% done.
  35% done.
  46% done.
  57% done.
  69% done.
  80% done.
  92% done.
 100% done.
 CPU time [min]:    52.197                   Wall time [min]:     1.464
 
 Cholesky decomposition of the inverse of the two-center matrix...
 CPU time [min]:    52.510                   Wall time [min]:     1.476
 
 Calculation of three-center Coulomb integrals...
   1% done.
  12% done.
  23% done.
  34% done.
  45% done.
  56% done.
  67% done.
  78% done.
  89% done.
 100% done.
 CPU time [min]:   116.652                   Wall time [min]:     3.473

 ************************ 2023-04-26 01:26:34 *************************
 Executing drpa...

 Three-index integral transformation and DF-MP2 calculation
 
 Allocation of 200.0 Gbytes of memory...
 Minimal memory requirement for (ai|P) integrals:      612.7 MB

 Calculating (ai|P) integrals...
 Number of integral batches:    1
 Occupied indices per batch:    5
 
 Transforming integrals of batch 1...
 CPU time [min]:    54.520                   Wall time [min]:     1.702
 
 
 
 Reference energy [au]:                      -112.785840489831
 DF-MP2 singlet pair energy [au]:              -0.292203937150
 DF-MP2 triplet pair energy [au]:              -0.094970406125
 DF-SCS-MP2 correlation energy [au]:           -0.382301526621
 DF-SCS-MP2 energy [au]:                     -113.168142016453
 DF-SOS-MP2 correlation energy [au]:           -0.379865118295
 DF-SOS-MP2 energy [au]:                     -113.165705608126
 DF-MP2 correlation energy [au]:               -0.387174343274
 DF-MP2 energy [au]:                         -113.173014833106
 
 ************************ 2023-04-26 01:28:17 *************************
                      Normal termination of mrcc.
 **********************************************************************
