 vasp.6.3.0 20Jan22 (build Apr  1 2022 16:44:48) complex                         
 executed on        HPECrayEX_GCC date 2023.05.17  21:47:31
 running  512 mpi-ranks, with    1 threads/rank
 distrk:  each k-point on  256 cores,    2 groups
 distr:  one band on NCORE=   4 cores,   64 groups


--------------------------------------------------------------------------------------------------------


 INCAR:
   SYSTEM = MgO-rocksalt
   ISMEAR = 0
   SIGMA = 0.05
   EDIFF = 1E-6
   ALGO = ALL
   ISTART = 0
   IBRION = -1
   NSW = 0
   ISYM = 2
   ISIF = 2
   EDIFFG = -0.01
   DIPOL = 0.5 0.5 0.5
   IDIPOL = 3
   LDIPOL = .TRUE.
   GGA = RE
   LUSE_VDW = .TRUE.
   AGGAC = 0.0
   ENCUT = 600
   PREC = Normal
   LASPH = .TRUE.
   LREAL = .FALSE.
   ISPIN = 1
   NELM = 200
   NELMIN = 8
   NCORE = 4
   KPAR = 2
   LWAVE = .FALSE.
   LCHARG = .FALSE.

 POTCAR:    PAW_PBE C 08Apr2002                   
 POTCAR:    PAW_PBE O 08Apr2002                   
 POTCAR:    PAW_PBE Mg_pv 13Apr2007               
 POTCAR:    PAW_PBE O 08Apr2002                   
 -----------------------------------------------------------------------------
|                                                                             |
|               ----> ADVICE to this user running VASP <----                  |
|                                                                             |
|     You have switched on vdW-DFT.                                           |
|     This routine was written and supplied by Jiri Klimes. We recommend      |
|     that you carefully read and cite the following publications:            |
|       J. Klimes, D.R. Bowler, A. Michelides                                 |
|          J. Phys.: Cond Matt. 22 022201 (2010)                              |
|       J. Klimes, D.R. Bowler, A. Michelides                                 |
|          Phys. Rev. B. 83, 195131 (2011)                                    |
|     and references therein.                                                 |
|                                                                             |
 -----------------------------------------------------------------------------

 POTCAR:    PAW_PBE C 08Apr2002                   
   SHA256 =  253f7b50bb8d59471dbedb8285d89021f4a42ed1a2c5d38a03a736e69125dd95 C/POTCAR              
   COPYR  = (c) Copyright 08Apr2002 Georg Kresse                                                    
   COPYR  = This file is part of the software VASP. Any use, copying, and all other rights are regul
   COPYR  = If you do not have a valid VASP license, you may not use, copy or distribute this file. 
   VRHFIN =C: s2p2                                                                                  
   LEXCH  = PE                                                                                      
   EATOM  =   147.1560 eV,   10.8157 Ry                                                             
                                                                                                    
   TITEL  = PAW_PBE C 08Apr2002                                                                     
   LULTRA =        F    use ultrasoft PP ?                                                          
   IUNSCR =        1    unscreen: 0-lin 1-nonlin 2-no                                               
   RPACOR =    1.200    partial core radius                                                         
   POMASS =   12.011; ZVAL   =    4.000    mass and valenz                                          
   RCORE  =    1.500    outmost cutoff radius                                                       
   RWIGS  =    1.630; RWIGS  =    0.863    wigner-seitz radius (au A)                               
   ENMAX  =  400.000; ENMIN  =  300.000 eV                                                          
   ICORE  =        2    local potential                                                             
   LCOR   =        T    correct aug charges                                                         
   LPAW   =        T    paw PP                                                                      
   EAUG   =  644.873                                                                                
   DEXC   =    0.000                                                                                
   RMAX   =    1.529    core radius for proj-oper                                                   
   RAUG   =    1.300    factor for augmentation sphere                                              
   RDEP   =    1.501    radius for radial grids                                                     
   RDEPT  =    1.300    core radius for aug-charge                                                  
                                                                                                    
   Atomic configuration                                                                             
    4 entries                                                                                       
     n  l   j            E        occ.                                                              
     1  0  0.50      -273.3789   2.0000                                                             
     2  0  0.50       -13.7508   2.0000                                                             
     2  1  0.50        -5.2854   2.0000                                                             
     3  2  1.50        -5.4423   0.0000                                                             
   Description                                                                                      
     l       E           TYP  RCUT    TYP  RCUT                                                     
     0    -13.7508458     23  1.200                                                                 
     0     -8.2022199     23  1.200                                                                 
     1     -5.2854383     23  1.500                                                                 
     1     34.0145650     23  1.500                                                                 
     2     -5.4423304      7  1.500                                                                 
  local pseudopotential read in
  partial core-charges read in
  partial kinetic energy density read in
  atomic valenz-charges read in
  non local Contribution for L=           0  read in
    real space projection operators read in
  non local Contribution for L=           0  read in
    real space projection operators read in
  non local Contribution for L=           1  read in
    real space projection operators read in
  non local Contribution for L=           1  read in
    real space projection operators read in
    PAW grid and wavefunctions read in

   number of l-projection  operators is LMAX  =           4
   number of lm-projection operators is LMMAX =           8

 POTCAR:    PAW_PBE O 08Apr2002                   
   SHA256 =  818f92134a0a090dccd8ba1447fa70422a3b330e708bb4f08108d8ae51209ddf O/POTCAR              
   COPYR  = (c) Copyright 08Apr2002 Georg Kresse                                                    
   COPYR  = This file is part of the software VASP. Any use, copying, and all other rights are regul
   COPYR  = If you do not have a valid VASP license, you may not use, copy or distribute this file. 
   VRHFIN =O: s2p4                                                                                  
   LEXCH  = PE                                                                                      
   EATOM  =   432.3788 eV,   31.7789 Ry                                                             
                                                                                                    
   TITEL  = PAW_PBE O 08Apr2002                                                                     
   LULTRA =        F    use ultrasoft PP ?                                                          
   IUNSCR =        1    unscreen: 0-lin 1-nonlin 2-no                                               
   RPACOR =    1.200    partial core radius                                                         
   POMASS =   16.000; ZVAL   =    6.000    mass and valenz                                          
   RCORE  =    1.520    outmost cutoff radius                                                       
   RWIGS  =    1.550; RWIGS  =    0.820    wigner-seitz radius (au A)                               
   ENMAX  =  400.000; ENMIN  =  300.000 eV                                                          
   ICORE  =        2    local potential                                                             
   LCOR   =        T    correct aug charges                                                         
   LPAW   =        T    paw PP                                                                      
   EAUG   =  605.392                                                                                
   DEXC   =    0.000                                                                                
   RMAX   =    1.553    core radius for proj-oper                                                   
   RAUG   =    1.300    factor for augmentation sphere                                              
   RDEP   =    1.550    radius for radial grids                                                     
   RDEPT  =    1.329    core radius for aug-charge                                                  
                                                                                                    
   Atomic configuration                                                                             
    4 entries                                                                                       
     n  l   j            E        occ.                                                              
     1  0  0.50      -514.6923   2.0000                                                             
     2  0  0.50       -23.9615   2.0000                                                             
     2  1  0.50        -9.0305   4.0000                                                             
     3  2  1.50        -9.5241   0.0000                                                             
   Description                                                                                      
     l       E           TYP  RCUT    TYP  RCUT                                                     
     0    -23.9615318     23  1.200                                                                 
     0     -9.5240782     23  1.200                                                                 
     1     -9.0304911     23  1.520                                                                 
     1      8.1634956     23  1.520                                                                 
     2     -9.5240782      7  1.500                                                                 
  local pseudopotential read in
  partial core-charges read in
  partial kinetic energy density read in
  kinetic energy density of atom read in
  atomic valenz-charges read in
  non local Contribution for L=           0  read in
    real space projection operators read in
  non local Contribution for L=           0  read in
    real space projection operators read in
  non local Contribution for L=           1  read in
    real space projection operators read in
  non local Contribution for L=           1  read in
    real space projection operators read in
    PAW grid and wavefunctions read in

   number of l-projection  operators is LMAX  =           4
   number of lm-projection operators is LMMAX =           8

 POTCAR:    PAW_PBE Mg_pv 13Apr2007               
   SHA256 =  f474ac0dd33840b9ae76c01d57fea79fdf77cdfbb07d5ade72c65f83c709b62b Mg_pv/POTCAR          
   COPYR  = (c) Copyright 13Apr2007 Georg Kresse                                                    
   COPYR  = This file is part of the software VASP. Any use, copying, and all other rights are regul
   COPYR  = If you do not have a valid VASP license, you may not use, copy or distribute this file. 
   VRHFIN =Mg: p6s2                                                                                 
   LEXCH  = PE                                                                                      
   EATOM  =  1056.7344 eV,   77.6678 Ry                                                             
                                                                                                    
   TITEL  = PAW_PBE Mg_pv 13Apr2007                                                                 
   LULTRA =        F    use ultrasoft PP ?                                                          
   IUNSCR =        1    unscreen: 0-lin 1-nonlin 2-no                                               
   RPACOR =    1.500    partial core radius                                                         
   POMASS =   24.305; ZVAL   =    8.000    mass and valenz                                          
   RCORE  =    2.000    outmost cutoff radius                                                       
   RWIGS  =    2.000; RWIGS  =    1.058    wigner-seitz radius (au A)                               
   ENMAX  =  403.929; ENMIN  =  302.947 eV                                                          
   RCLOC  =    1.506    cutoff for local pot                                                        
   LCOR   =        T    correct aug charges                                                         
   LPAW   =        T    paw PP                                                                      
   EAUG   =  758.780                                                                                
   DEXC   =    0.000                                                                                
   RMAX   =    2.045    core radius for proj-oper                                                   
   RAUG   =    1.300    factor for augmentation sphere                                              
   RDEP   =    2.025    radius for radial grids                                                     
   RDEPT  =    1.557    core radius for aug-charge                                                  
                                                                                                    
   Atomic configuration                                                                             
    5 entries                                                                                       
     n  l   j            E        occ.                                                              
     1  0  0.50     -1259.6230   2.0000                                                             
     2  0  0.50       -79.8442   2.0000                                                             
     2  1  1.50       -46.6121   6.0000                                                             
     3  0  0.50        -4.7055   2.0000                                                             
     3  2  1.50        -1.3606   0.0000                                                             
   Description                                                                                      
     l       E           TYP  RCUT    TYP  RCUT                                                     
     1    -46.6121073     23  1.600                                                                 
     1      2.7211652     23  1.600                                                                 
     0     -4.7054661     23  2.000                                                                 
     0     61.2262170     23  2.000                                                                 
     2     -1.3605826     23  2.000                                                                 
  local pseudopotential read in
  partial core-charges read in
  partial kinetic energy density read in
  atomic valenz-charges read in
  non local Contribution for L=           1  read in
    real space projection operators read in
  non local Contribution for L=           1  read in
    real space projection operators read in
  non local Contribution for L=           0  read in
    real space projection operators read in
  non local Contribution for L=           0  read in
    real space projection operators read in
  non local Contribution for L=           2  read in
    real space projection operators read in
    PAW grid and wavefunctions read in

   number of l-projection  operators is LMAX  =           5
   number of lm-projection operators is LMMAX =          13

 POTCAR:    PAW_PBE O 08Apr2002                   
   SHA256 =  818f92134a0a090dccd8ba1447fa70422a3b330e708bb4f08108d8ae51209ddf O/POTCAR              
   COPYR  = (c) Copyright 08Apr2002 Georg Kresse                                                    
   COPYR  = This file is part of the software VASP. Any use, copying, and all other rights are regul
   COPYR  = If you do not have a valid VASP license, you may not use, copy or distribute this file. 
   VRHFIN =O: s2p4                                                                                  
   LEXCH  = PE                                                                                      
   EATOM  =   432.3788 eV,   31.7789 Ry                                                             
                                                                                                    
   TITEL  = PAW_PBE O 08Apr2002                                                                     
   LULTRA =        F    use ultrasoft PP ?                                                          
   IUNSCR =        1    unscreen: 0-lin 1-nonlin 2-no                                               
   RPACOR =    1.200    partial core radius                                                         
   POMASS =   16.000; ZVAL   =    6.000    mass and valenz                                          
   RCORE  =    1.520    outmost cutoff radius                                                       
   RWIGS  =    1.550; RWIGS  =    0.820    wigner-seitz radius (au A)                               
   ENMAX  =  400.000; ENMIN  =  300.000 eV                                                          
   ICORE  =        2    local potential                                                             
   LCOR   =        T    correct aug charges                                                         
   LPAW   =        T    paw PP                                                                      
   EAUG   =  605.392                                                                                
   DEXC   =    0.000                                                                                
   RMAX   =    1.553    core radius for proj-oper                                                   
   RAUG   =    1.300    factor for augmentation sphere                                              
   RDEP   =    1.550    radius for radial grids                                                     
   RDEPT  =    1.329    core radius for aug-charge                                                  
                                                                                                    
   Atomic configuration                                                                             
    4 entries                                                                                       
     n  l   j            E        occ.                                                              
     1  0  0.50      -514.6923   2.0000                                                             
     2  0  0.50       -23.9615   2.0000                                                             
     2  1  0.50        -9.0305   4.0000                                                             
     3  2  1.50        -9.5241   0.0000                                                             
   Description                                                                                      
     l       E           TYP  RCUT    TYP  RCUT                                                     
     0    -23.9615318     23  1.200                                                                 
     0     -9.5240782     23  1.200                                                                 
     1     -9.0304911     23  1.520                                                                 
     1      8.1634956     23  1.520                                                                 
     2     -9.5240782      7  1.500                                                                 
  local pseudopotential read in
  partial core-charges read in
  partial kinetic energy density read in
  kinetic energy density of atom read in
  atomic valenz-charges read in
  non local Contribution for L=           0  read in
    real space projection operators read in
  non local Contribution for L=           0  read in
    real space projection operators read in
  non local Contribution for L=           1  read in
    real space projection operators read in
  non local Contribution for L=           1  read in
    real space projection operators read in
    PAW grid and wavefunctions read in

   number of l-projection  operators is LMAX  =           4
   number of lm-projection operators is LMMAX =           8

 -----------------------------------------------------------------------------
|                                                                             |
|               ----> ADVICE to this user running VASP <----                  |
|                                                                             |
|     You have a (more or less) 'large supercell' and for larger cells it     |
|     might be more efficient to use real-space projection operators.         |
|     Therefore, try LREAL= Auto in the INCAR file.                           |
|     Mind: For very accurate calculation, you might also keep the            |
|     reciprocal projection scheme (i.e. LREAL=.FALSE.).                      |
|                                                                             |
 -----------------------------------------------------------------------------

 -----------------------------------------------------------------------------
|                                                                             |
|               ----> ADVICE to this user running VASP <----                  |
|                                                                             |
|     You enforced a specific xc type in the INCAR file but a different       |
|     type was found in the POTCAR file.                                      |
|     I HOPE YOU KNOW WHAT YOU ARE DOING!                                     |
|                                                                             |
 -----------------------------------------------------------------------------

  PAW_PBE C 08Apr2002                   :
 energy of atom  1       EATOM= -147.1560
 kinetic energy error for atom=    0.0057 (will be added to EATOM!!)
  PAW_PBE O 08Apr2002                   :
 energy of atom  2       EATOM= -432.3788
 kinetic energy error for atom=    0.0168 (will be added to EATOM!!)
  PAW_PBE Mg_pv 13Apr2007               :
 energy of atom  3       EATOM=-1056.7344
 kinetic energy error for atom=    0.0221 (will be added to EATOM!!)
  PAW_PBE O 08Apr2002                   :
 energy of atom  4       EATOM= -432.3788
 kinetic energy error for atom=    0.0168 (will be added to EATOM!!)


 POSCAR:  C  O Mg  O
  positions in direct lattice
  No initial velocities read in
 exchange correlation table for  LEXCH =       40
   RHO(1)=    0.500       N(1)  =     2000
   RHO(2)=  100.500       N(2)  =     4000



--------------------------------------------------------------------------------------------------------


 ion  position               nearest neighbor table
   1  0.500  0.500  0.764-   2 1.15
   2  0.500  0.500  0.817-   1 1.15
   3  0.000  0.750  0.352-  35 2.11  37 2.11  38 2.11  45 2.11  54 2.11
   4  0.250  0.000  0.352-  36 2.11  37 2.11  38 2.11  46 2.11  53 2.11
   5  0.000  0.000  0.451-  37 2.11  36 2.11  35 2.11  43 2.11  52 2.11  41 2.12
   6  0.250  0.750  0.451-  38 2.11  36 2.11  35 2.11  44 2.11  51 2.11  42 2.12
   7  0.000  0.750  0.550-  49 2.11  42 2.11  58 2.11  41 2.11  35 2.12  39 2.15
   8  0.250  0.000  0.550-  57 2.11  50 2.11  42 2.11  41 2.11  36 2.12  40 2.15
   9  0.000  0.000  0.649-  39 2.11  40 2.11  47 2.11  56 2.11  41 2.11
  10  0.250  0.750  0.649-  42 2.11  40 2.11  39 2.11  48 2.11  55 2.11
  11  0.000  0.250  0.352-  43 2.11  37 2.11  45 2.11  46 2.11  62 2.11
  12  0.250  0.500  0.352-  44 2.11  38 2.11  45 2.11  46 2.11  61 2.11
  13  0.000  0.500  0.451-  45 2.11  43 2.11  44 2.11  35 2.11  60 2.11  49 2.12
  14  0.250  0.250  0.451-  46 2.11  43 2.11  44 2.11  36 2.11  59 2.11  50 2.12
  15  0.000  0.250  0.550-  49 2.11  50 2.11  66 2.11  41 2.11  43 2.12  47 2.15
  16  0.250  0.500  0.550-  65 2.11  50 2.11  42 2.11  49 2.11  44 2.13  48 2.15
  17  0.000  0.500  0.649-  48 2.10  64 2.10  49 2.11  47 2.11  39 2.11
  18  0.250  0.250  0.649-  50 2.11  47 2.11  40 2.11  48 2.11  63 2.11
  19  0.500  0.750  0.352-  51 2.11  38 2.11  53 2.11  54 2.11  61 2.11
  20  0.750  0.000  0.352-  52 2.11  37 2.11  53 2.11  54 2.11  62 2.11
  21  0.500  0.000  0.451-  53 2.11  51 2.11  52 2.11  36 2.11  59 2.11  57 2.12
  22  0.750  0.750  0.451-  54 2.11  51 2.11  52 2.11  35 2.11  60 2.11  58 2.12
  23  0.500  0.750  0.550-  65 2.11  58 2.11  42 2.11  57 2.11  51 2.13  55 2.15
  24  0.750  0.000  0.550-  57 2.11  58 2.11  66 2.11  41 2.11  52 2.12  56 2.15
  25  0.500  0.000  0.649-  55 2.10  63 2.10  57 2.11  40 2.11  56 2.11
  26  0.750  0.750  0.649-  58 2.11  56 2.11  39 2.11  55 2.11  64 2.11
  27  0.500  0.250  0.352-  59 2.11  53 2.11  46 2.11  61 2.11  62 2.11
  28  0.750  0.500  0.352-  60 2.11  54 2.11  45 2.11  61 2.11  62 2.11
  29  0.500  0.500  0.451-  61 2.11  51 2.11  59 2.11  60 2.11  44 2.11  65 2.13
  30  0.750  0.250  0.451-  62 2.11  52 2.11  59 2.11  60 2.11  43 2.11  66 2.12
  31  0.500  0.250  0.550-  65 2.11  50 2.11  66 2.11  57 2.11  59 2.13  63 2.15
  32  0.750  0.500  0.550-  65 2.11  58 2.11  66 2.11  49 2.11  60 2.13  64 2.15
  33  0.500  0.500  0.651-  48 2.12  55 2.12  63 2.12  64 2.12  65 2.14
  34  0.750  0.250  0.649-  66 2.11  56 2.11  47 2.11  64 2.11  63 2.11
  35  0.000  0.750  0.451-   3 2.11   5 2.11   6 2.11  13 2.11  22 2.11   7 2.12
  36  0.250  0.000  0.451-   4 2.11   5 2.11   6 2.11  14 2.11  21 2.11   8 2.12
  37  0.000  0.000  0.352-   5 2.11   4 2.11   3 2.11  11 2.11  20 2.11
  38  0.250  0.750  0.352-   6 2.11   4 2.11   3 2.11  12 2.11  19 2.11
  39  0.000  0.750  0.651-   9 2.11  10 2.11  26 2.11  17 2.11   7 2.15
  40  0.250  0.000  0.651-   9 2.11  10 2.11  18 2.11  25 2.11   8 2.15
  41  0.000  0.000  0.550-   9 2.11   8 2.11   7 2.11  15 2.11  24 2.11   5 2.12
  42  0.250  0.750  0.550-  10 2.11   8 2.11   7 2.11  16 2.11  23 2.11   6 2.12
  43  0.000  0.250  0.451-  11 2.11   5 2.11  13 2.11  14 2.11  30 2.11  15 2.12
  44  0.250  0.500  0.451-  12 2.11   6 2.11  13 2.11  14 2.11  29 2.11  16 2.13
  45  0.000  0.500  0.352-  13 2.11  11 2.11  12 2.11   3 2.11  28 2.11
  46  0.250  0.250  0.352-  14 2.11  11 2.11  12 2.11   4 2.11  27 2.11
  47  0.000  0.250  0.651-   9 2.11  18 2.11  34 2.11  17 2.11  15 2.15
  48  0.249  0.500  0.651-  17 2.10  10 2.11  18 2.11  33 2.12  16 2.15
  49  0.000  0.500  0.550-  17 2.11  15 2.11   7 2.11  16 2.11  32 2.11  13 2.12
  50  0.250  0.250  0.550-  18 2.11  15 2.11   8 2.11  16 2.11  31 2.11  14 2.12
  51  0.500  0.750  0.451-  19 2.11   6 2.11  21 2.11  22 2.11  29 2.11  23 2.13
  52  0.750  0.000  0.451-  20 2.11   5 2.11  21 2.11  22 2.11  30 2.11  24 2.12
  53  0.500  0.000  0.352-  21 2.11  19 2.11  20 2.11   4 2.11  27 2.11
  54  0.750  0.750  0.352-  22 2.11  19 2.11  20 2.11   3 2.11  28 2.11
  55  0.500  0.751  0.651-  25 2.10  10 2.11  26 2.11  33 2.12  23 2.15
  56  0.750  0.000  0.651-   9 2.11  26 2.11  34 2.11  25 2.11  24 2.15
  57  0.500  0.000  0.550-  25 2.11  24 2.11   8 2.11  23 2.11  31 2.11  21 2.12
  58  0.750  0.750  0.550-  26 2.11  24 2.11   7 2.11  32 2.11  23 2.11  22 2.12
  59  0.500  0.250  0.451-  27 2.11  21 2.11  14 2.11  29 2.11  30 2.11  31 2.13
  60  0.750  0.500  0.451-  28 2.11  22 2.11  13 2.11  29 2.11  30 2.11  32 2.13
  61  0.500  0.500  0.352-  29 2.11  19 2.11  27 2.11  28 2.11  12 2.11
  62  0.750  0.250  0.352-  30 2.11  20 2.11  27 2.11  28 2.11  11 2.11
  63  0.500  0.249  0.651-  25 2.10  18 2.11  34 2.11  33 2.12  31 2.15
  64  0.751  0.500  0.651-  17 2.10  26 2.11  34 2.11  33 2.12  32 2.15
  65  0.500  0.500  0.550-  16 2.11  23 2.11  31 2.11  32 2.11  29 2.13  33 2.14
  66  0.750  0.250  0.550-  34 2.11  24 2.11  15 2.11  32 2.11  31 2.11  30 2.12

  LATTYP: Found a simple tetragonal cell.
 ALAT       =     8.4409846542
 C/A-ratio  =     2.5270438657
  
  Lattice vectors:
  
 A1 = (   8.4409846542,   0.0000000000,   0.0000000000)
 A2 = (   0.0000000000,   8.4409846542,   0.0000000000)
 A3 = (   0.0000000000,   0.0000000000,  21.3307384906)


Analysis of symmetry for initial positions (statically):
=====================================================================
 Subroutine PRICEL returns:
 Original cell was already a primitive cell.
 

 Routine SETGRP: Setting up the symmetry group for a 
 simple tetragonal supercell.


 Subroutine GETGRP returns: Found  8 space group operations
 (whereof  8 operations were pure point group operations)
 out of a pool of 16 trial point group operations.


The static configuration has the point symmetry C_4v.


Analysis of symmetry for dynamics (positions and initial velocities):
=====================================================================
 Subroutine PRICEL returns:
 Original cell was already a primitive cell.
 

 Routine SETGRP: Setting up the symmetry group for a 
 simple tetragonal supercell.


 Subroutine GETGRP returns: Found  8 space group operations
 (whereof  8 operations were pure point group operations)
 out of a pool of 16 trial point group operations.


The dynamic configuration has the point symmetry C_4v.


 Subroutine INISYM returns: Found  8 space group operations
 (whereof  8 operations are pure point group operations),
 and found     1 'primitive' translations


----------------------------------------------------------------------------------------

                                     Primitive cell                                     

  volume of cell :    1519.8199

  direct lattice vectors                    reciprocal lattice vectors
     8.440984654  0.000000000  0.000000000     0.118469591  0.000000000  0.000000000
     0.000000000  8.440984654  0.000000000     0.000000000  0.118469591  0.000000000
     0.000000000  0.000000000 21.330738491     0.000000000  0.000000000  0.046880702

  length of vectors
     8.440984654  8.440984654 21.330738491     0.118469591  0.118469591  0.046880702

  position of ions in fractional coordinates (direct lattice)
     0.500000000  0.500000000  0.763599453
     0.500000000  0.500000000  0.817363171
     0.000000000  0.750000000  0.351605267
     0.250000000  0.000000000  0.351605267
     0.000000000  0.000000000  0.450535089
     0.250000000  0.750000000  0.450535089
     0.000000000  0.749939268  0.550083239
     0.250060732  0.000000000  0.550083239
     0.000000000  0.000000000  0.648745309
     0.249858327  0.750141673  0.648569547
     0.000000000  0.250000000  0.351605267
     0.250000000  0.500000000  0.351605267
     0.000000000  0.500000000  0.450535089
     0.250000000  0.250000000  0.450535089
     0.000000000  0.250060732  0.550083239
     0.250378379  0.500000000  0.550219524
     0.000000000  0.500000000  0.648615280
     0.249858327  0.249858327  0.648569547
     0.500000000  0.750000000  0.351605267
     0.750000000  0.000000000  0.351605267
     0.500000000  0.000000000  0.450535089
     0.750000000  0.750000000  0.450535089
     0.500000000  0.749621621  0.550219524
     0.749939268  0.000000000  0.550083239
     0.500000000  0.000000000  0.648615280
     0.750141673  0.750141673  0.648569547
     0.500000000  0.250000000  0.351605267
     0.750000000  0.500000000  0.351605267
     0.500000000  0.500000000  0.450535089
     0.750000000  0.250000000  0.450535089
     0.500000000  0.250378379  0.550219524
     0.749621621  0.500000000  0.550219524
     0.500000000  0.500000000  0.650616960
     0.750141673  0.249858327  0.648569547
     0.000000000  0.750000000  0.450535089
     0.250000000  0.000000000  0.450535089
     0.000000000  0.000000000  0.351605267
     0.250000000  0.750000000  0.351605267
     0.000000000  0.750218533  0.650979255
     0.249781467  0.000000000  0.650979255
     0.000000000  0.000000000  0.549809890
     0.249945770  0.750054230  0.549859113
     0.000000000  0.250000000  0.450535089
     0.250000000  0.500000000  0.450535089
     0.000000000  0.500000000  0.351605267
     0.250000000  0.250000000  0.351605267
     0.000000000  0.249781467  0.650979255
     0.248822710  0.500000000  0.650882872
     0.000000000  0.500000000  0.549762666
     0.249945770  0.249945770  0.549859113
     0.500000000  0.750000000  0.450535089
     0.750000000  0.000000000  0.450535089
     0.500000000  0.000000000  0.351605267
     0.750000000  0.750000000  0.351605267
     0.500000000  0.751177290  0.650882872
     0.750218533  0.000000000  0.650979255
     0.500000000  0.000000000  0.549762666
     0.750054230  0.750054230  0.549859113
     0.500000000  0.250000000  0.450535089
     0.750000000  0.500000000  0.450535089
     0.500000000  0.500000000  0.351605267
     0.750000000  0.250000000  0.351605267
     0.500000000  0.248822710  0.650882872
     0.751177290  0.500000000  0.650882872
     0.500000000  0.500000000  0.550231357
     0.750054230  0.249945770  0.549859113

  ion indices of the primitive-cell ions
   primitive index   ion index
                 1           1
                 2           2
                 3           3
                 4           4
                 5           5
                 6           6
                 7           7
                 8           8
                 9           9
                10          10
                11          11
                12          12
                13          13
                14          14
                15          15
                16          16
                17          17
                18          18
                19          19
                20          20
                21          21
                22          22
                23          23
                24          24
                25          25
                26          26
                27          27
                28          28
                29          29
                30          30
                31          31
                32          32
                33          33
                34          34
                35          35
                36          36
                37          37
                38          38
                39          39
                40          40
                41          41
                42          42
                43          43
                44          44
                45          45
                46          46
                47          47
                48          48
                49          49
                50          50
                51          51
                52          52
                53          53
                54          54
                55          55
                56          56
                57          57
                58          58
                59          59
                60          60
                61          61
                62          62
                63          63
                64          64
                65          65
                66          66

----------------------------------------------------------------------------------------



 KPOINTS: pymatgen v2020.8.13 with grid density = 

Automatic generation of k-mesh.
 Grid dimensions read from file:
 generate k-points for:    2    2    1

 Generating k-lattice:

  Cartesian coordinates                     Fractional coordinates (reciprocal lattice)
     0.059234796  0.000000000  0.000000000     0.500000000  0.000000000  0.000000000
     0.000000000  0.059234796  0.000000000     0.000000000  0.500000000  0.000000000
     0.000000000  0.000000000  0.046880702     0.000000000  0.000000000  1.000000000

  Length of vectors
     0.059234796  0.059234796  0.046880702

  Shift w.r.t. Gamma in fractional coordinates (k-lattice)
     0.000000000  0.000000000  0.000000000

 
 Subroutine IBZKPT returns following result:
 ===========================================
 
 Found      3 irreducible k-points:
 
 Following reciprocal coordinates:
            Coordinates               Weight
  0.000000  0.000000  0.000000      1.000000
  0.500000  0.000000  0.000000      2.000000
  0.500000  0.500000  0.000000      1.000000
 
 Following cartesian coordinates:
            Coordinates               Weight
  0.000000  0.000000  0.000000      1.000000
  0.059235  0.000000  0.000000      2.000000
  0.059235  0.059235  0.000000      1.000000
 


--------------------------------------------------------------------------------------------------------




 Dimension of arrays:
   k-points           NKPTS =      3   k-points in BZ     NKDIM =      3   number of bands    NBANDS=    320
   number of dos      NEDOS =    301   number of ions     NIONS =     66
   non local maximal  LDIM  =      5   non local SUM 2l+1 LMDIM =     13
   total plane-waves  NPLWV = 373248
   max r-space proj   IRMAX =      1   max aug-charges    IRDMAX=   5039
   dimension x,y,z NGX =    54 NGY =   54 NGZ =  128
   dimension x,y,z NGXF=   108 NGYF=  108 NGZF=  256
   support grid    NGXF=   108 NGYF=  108 NGZF=  256
   ions per type =               1   1  32  32
   NGX,Y,Z   is equivalent  to a cutoff of  10.64, 10.64,  9.98 a.u.
   NGXF,Y,Z  is equivalent  to a cutoff of  21.27, 21.27, 19.95 a.u.

 SYSTEM =  MgO-rocksalt                            
 POSCAR =   C  O Mg  O                             

 Startparameter for this run:
   NWRITE =      2    write-flag & timer
   PREC   = normal    normal or accurate (medium, high low for compatibility)
   ISTART =      0    job   : 0-new  1-cont  2-samecut
   ICHARG =      2    charge: 1-file 2-atom 10-const
   ISPIN  =      1    spin polarized calculation?
   LNONCOLLINEAR =      F non collinear calculations
   LSORBIT =      F    spin-orbit coupling
   INIWAV =      1    electr: 0-lowe 1-rand  2-diag
   LASPH  =      T    aspherical Exc in radial PAW
 Electronic Relaxation 1
   ENCUT  =  600.0 eV  44.10 Ry    6.64 a.u.  16.86 16.86 42.60*2*pi/ulx,y,z
   ENINI  =  600.0     initial cutoff
   ENAUG  =  758.8 eV  augmentation charge cutoff
   NELM   =    200;   NELMIN=  8; NELMDL= -5     # of ELM steps 
   EDIFF  = 0.1E-05   stopping-criterion for ELM
   LREAL  =      F    real-space projection
   NLSPLINE    = F    spline interpolate recip. space projectors
   LCOMPAT=      F    compatible to vasp.4.4
   GGA_COMPAT  = T    GGA compatible to vasp.4.4-vasp.4.6
   LMAXPAW     = -100 max onsite density
   LMAXMIX     =    2 max onsite mixed and CHGCAR
   VOSKOWN=      0    Vosko Wilk Nusair interpolation
   ROPT   =    0.00000   0.00000   0.00000   0.00000
 Ionic relaxation
   EDIFFG = -.1E-01   stopping-criterion for IOM
   NSW    =      0    number of steps for IOM
   NBLOCK =      1;   KBLOCK =      1    inner block; outer block 
   IBRION =     -1    ionic relax: 0-MD 1-quasi-New 2-CG
   NFREE  =      0    steps in history (QN), initial steepest desc. (CG)
   ISIF   =      2    stress and relaxation
   IWAVPR =     10    prediction:  0-non 1-charg 2-wave 3-comb
   ISYM   =      2    0-nonsym 1-usesym 2-fastsym
   LCORR  =      T    Harris-Foulkes like correction to forces

   POTIM  = 0.5000    time-step for ionic-motion
   TEIN   =    0.0    initial temperature
   TEBEG  =    0.0;   TEEND  =   0.0 temperature during run
   SMASS  =  -3.00    Nose mass-parameter (am)
   estimated Nose-frequenzy (Omega)   =  0.10E-29 period in steps = 0.13E+47 mass=  -0.163E-26a.u.
   SCALEE = 1.0000    scale energy and forces
   NPACO  =    256;   APACO  = 10.0  distance and # of slots for P.C.
   PSTRESS=    0.0 pullay stress

  Mass of Ions in am
   POMASS =  12.01 16.00 24.30 16.00
  Ionic Valenz
   ZVAL   =   4.00  6.00  8.00  6.00
  Atomic Wigner-Seitz radii
   RWIGS  =  -1.00 -1.00 -1.00 -1.00
  virtual crystal weights 
   VCA    =   1.00  1.00  1.00  1.00
   NELECT =     458.0000    total number of electrons
   NUPDOWN=      -1.0000    fix difference up-down

 DOS related values:
   EMIN   =  10.00;   EMAX   =-10.00  energy-range for DOS
   EFERMI =   0.00
   ISMEAR =     0;   SIGMA  =   0.05  broadening in eV -4-tet -1-fermi 0-gaus

 Electronic relaxation 2 (details)
   IALGO  =     58    algorithm
   LDIAG  =      T    sub-space diagonalisation (order eigenvalues)
   LSUBROT=      F    optimize rotation matrix (better conditioning)
   TURBO    =      0    0=normal 1=particle mesh
   IRESTART =      0    0=no restart 2=restart with 2 vectors
   NREBOOT  =      0    no. of reboots
   NMIN     =      0    reboot dimension
   EREF     =   0.00    reference energy to select bands
   IMIX   =      4    mixing-type and parameters
     AMIX     =   0.40;   BMIX     =  1.00
     AMIX_MAG =   1.60;   BMIX_MAG =  1.00
     AMIN     =   0.10
     WC   =   100.;   INIMIX=   1;  MIXPRE=   1;  MAXMIX= -45

 Intra band minimization:
   WEIMIN = 0.0000     energy-eigenvalue tresh-hold
   EBREAK =  0.78E-09  absolut break condition
   DEPER  =   0.30     relativ break condition  

   TIME   =   0.40     timestep for ELM

  volume/ion in A,a.u.               =      23.03       155.40
  Fermi-wavevector in a.u.,A,eV,Ry     =   1.097571  2.074108 16.390423  1.204662
  Thomas-Fermi vector in A             =   2.233933

 Write flags
   LWAVE        =      F    write WAVECAR
   LDOWNSAMPLE  =      F    k-point downsampling of WAVECAR
   LCHARG       =      F    write CHGCAR
   LVTOT        =      F    write LOCPOT, total local potential
   LVHAR        =      F    write LOCPOT, Hartree potential only
   LELF         =      F    write electronic localiz. function (ELF)
   LORBIT       =      0    0 simple, 1 ext, 2 COOP (PROOUT), +10 PAW based schemes


 Dipole corrections
   LMONO  =      F    monopole corrections only (constant potential shift)
   LDIPOL =      T    correct potential (dipole corrections)
   IDIPOL =      3    1-x, 2-y, 3-z, 4-all directions 
   EPSILON=  1.0000000 bulk dielectric constant

 Exchange correlation treatment:
   GGA     =    RE    GGA type
   LEXCH   =    40    internal setting for exchange type
   LIBXC   =     F    Libxc                    
   VOSKOWN =     0    Vosko Wilk Nusair interpolation
   LHFCALC =     F    Hartree Fock is set to
   LHFONE  =     F    Hartree Fock one center treatment
   AEXX    =    0.0000 exact exchange contribution

 vdW DFT:
   LUSE_VDW   =     T    switch on vdW DFT
   Zab_VDW    =-.8491    correlation parameter
   PARAM1     =0.1234
   PARAM2     =1.0000
   PARAM3     =0.0000
   -- rVV10 --
   BPARAM     = 6.3000
   CPARAM     = 0.0093

 Linear response parameters
   LEPSILON=     F    determine dielectric tensor
   LRPA    =     F    only Hartree local field effects (RPA)
   LNABLA  =     F    use nabla operator in PAW spheres
   LVEL    =     F    velocity operator in full k-point grid
   CSHIFT  =0.1000    complex shift for real part using Kramers Kronig
   OMEGAMAX=  -1.0    maximum frequency
   DEG_THRESHOLD= 0.2000000E-02 threshold for treating states as degnerate
   RTIME   =   -0.100 relaxation time in fs
  (WPLASMAI=    0.000 imaginary part of plasma frequency in eV, 0.658/RTIME)
   DFIELD  = 0.0000000 0.0000000 0.0000000 field for delta impulse in time

  Optional k-point grid parameters
   LKPOINTS_OPT  =     F    use optional k-point grid
   KPOINTS_OPT_MODE=     1    mode for optional k-point grid

 Orbital magnetization related:
   ORBITALMAG=     F  switch on orbital magnetization
   LCHIMAG   =     F  perturbation theory with respect to B field
   DQ        =  0.001000  dq finite difference perturbation B field
   LLRAUG    =     F  two centre corrections for induced B field



--------------------------------------------------------------------------------------------------------


 Static calculation
 charge density and potential will be updated during run
 non-spin polarized calculation
 Conjugate gradient for all bands (Freysoldt, et al. PRB 79, 241103 (2009))
 preconditioned conjugated gradient                                        
 perform sub-space diagonalisation
    before iterative eigenvector-optimisation
 modified Broyden-mixing scheme, WC =      100.0
 initial mixing is a Kerker type mixing with AMIX =  0.4000 and BMIX =      1.0000
 Hartree-type preconditioning will be used
 using additional bands           91
 reciprocal scheme for non local part
 use partial core corrections
 no Harris-corrections to forces 
 use gradient corrections 
 use of overlap-Matrix (Vanderbilt PP)
 Gauss-broadening in eV      SIGMA  =   0.05


--------------------------------------------------------------------------------------------------------


  energy-cutoff  :      600.00
  volume of cell :     1519.82
      direct lattice vectors                 reciprocal lattice vectors
     8.440984654  0.000000000  0.000000000     0.118469591  0.000000000  0.000000000
     0.000000000  8.440984654  0.000000000     0.000000000  0.118469591  0.000000000
     0.000000000  0.000000000 21.330738491     0.000000000  0.000000000  0.046880702

  length of vectors
     8.440984654  8.440984654 21.330738491     0.118469591  0.118469591  0.046880702



 k-points in units of 2pi/SCALE and weight: pymatgen v2020.8.13 with grid density = 
   0.00000000  0.00000000  0.00000000       0.250
   0.05923480  0.00000000  0.00000000       0.500
   0.05923480  0.05923480  0.00000000       0.250

 k-points in reciprocal lattice and weights: pymatgen v2020.8.13 with grid density = 
   0.00000000  0.00000000  0.00000000       0.250
   0.50000000  0.00000000  0.00000000       0.500
   0.50000000  0.50000000  0.00000000       0.250

 position of ions in fractional coordinates (direct lattice) 
   0.50000000  0.50000000  0.76359945
   0.50000000  0.50000000  0.81736317
   0.00000000  0.75000000  0.35160527
   0.25000000  0.00000000  0.35160527
   0.00000000  0.00000000  0.45053509
   0.25000000  0.75000000  0.45053509
   0.00000000  0.74993927  0.55008324
   0.25006073  0.00000000  0.55008324
   0.00000000  0.00000000  0.64874531
   0.24985833  0.75014167  0.64856955
   0.00000000  0.25000000  0.35160527
   0.25000000  0.50000000  0.35160527
   0.00000000  0.50000000  0.45053509
   0.25000000  0.25000000  0.45053509
   0.00000000  0.25006073  0.55008324
   0.25037838  0.50000000  0.55021952
   0.00000000  0.50000000  0.64861528
   0.24985833  0.24985833  0.64856955
   0.50000000  0.75000000  0.35160527
   0.75000000  0.00000000  0.35160527
   0.50000000  0.00000000  0.45053509
   0.75000000  0.75000000  0.45053509
   0.50000000  0.74962162  0.55021952
   0.74993927  0.00000000  0.55008324
   0.50000000  0.00000000  0.64861528
   0.75014167  0.75014167  0.64856955
   0.50000000  0.25000000  0.35160527
   0.75000000  0.50000000  0.35160527
   0.50000000  0.50000000  0.45053509
   0.75000000  0.25000000  0.45053509
   0.50000000  0.25037838  0.55021952
   0.74962162  0.50000000  0.55021952
   0.50000000  0.50000000  0.65061696
   0.75014167  0.24985833  0.64856955
   0.00000000  0.75000000  0.45053509
   0.25000000  0.00000000  0.45053509
   0.00000000  0.00000000  0.35160527
   0.25000000  0.75000000  0.35160527
   0.00000000  0.75021853  0.65097926
   0.24978147  0.00000000  0.65097926
   0.00000000  0.00000000  0.54980989
   0.24994577  0.75005423  0.54985911
   0.00000000  0.25000000  0.45053509
   0.25000000  0.50000000  0.45053509
   0.00000000  0.50000000  0.35160527
   0.25000000  0.25000000  0.35160527
   0.00000000  0.24978147  0.65097926
   0.24882271  0.50000000  0.65088287
   0.00000000  0.50000000  0.54976267
   0.24994577  0.24994577  0.54985911
   0.50000000  0.75000000  0.45053509
   0.75000000  0.00000000  0.45053509
   0.50000000  0.00000000  0.35160527
   0.75000000  0.75000000  0.35160527
   0.50000000  0.75117729  0.65088287
   0.75021853  0.00000000  0.65097926
   0.50000000  0.00000000  0.54976267
   0.75005423  0.75005423  0.54985911
   0.50000000  0.25000000  0.45053509
   0.75000000  0.50000000  0.45053509
   0.50000000  0.50000000  0.35160527
   0.75000000  0.25000000  0.35160527
   0.50000000  0.24882271  0.65088287
   0.75117729  0.50000000  0.65088287
   0.50000000  0.50000000  0.55023136
   0.75005423  0.24994577  0.54985911

 position of ions in cartesian coordinates  (Angst):
   4.22049233  4.22049233 16.28814023
   4.22049233  4.22049233 17.43496005
   0.00000000  6.33073849  7.50000000
   2.11024616  0.00000000  7.50000000
   0.00000000  0.00000000  9.61024616
   2.11024616  6.33073849  9.61024616
   0.00000000  6.33022585 11.73368172
   2.11075880  0.00000000 11.73368172
   0.00000000  0.00000000 13.83821654
   2.10905031  6.33193435 13.83446740
   0.00000000  2.11024616  7.50000000
   2.11024616  4.22049233  7.50000000
   0.00000000  4.22049233  9.61024616
   2.11024616  2.11024616  9.61024616
   0.00000000  2.11075880 11.73368172
   2.11344006  4.22049233 11.73658877
   0.00000000  4.22049233 13.83544293
   2.10905031  2.10905031 13.83446740
   4.22049233  6.33073849  7.50000000
   6.33073849  0.00000000  7.50000000
   4.22049233  0.00000000  9.61024616
   6.33073849  6.33073849  9.61024616
   4.22049233  6.32754460 11.73658877
   6.33022585  0.00000000 11.73368172
   4.22049233  0.00000000 13.83544293
   6.33193435  6.33193435 13.83446740
   4.22049233  2.11024616  7.50000000
   6.33073849  4.22049233  7.50000000
   4.22049233  4.22049233  9.61024616
   6.33073849  2.11024616  9.61024616
   4.22049233  2.11344006 11.73658877
   6.32754460  4.22049233 11.73658877
   4.22049233  4.22049233 13.87814023
   6.33193435  2.10905031 13.83446740
   0.00000000  6.33073849  9.61024616
   2.11024616  0.00000000  9.61024616
   0.00000000  0.00000000  7.50000000
   2.11024616  6.33073849  7.50000000
   0.00000000  6.33258312 13.88586825
   2.10840153  0.00000000 13.88586825
   0.00000000  0.00000000 11.72785099
   2.10978841  6.33119624 11.72890095
   0.00000000  2.11024616  9.61024616
   2.11024616  4.22049233  9.61024616
   0.00000000  4.22049233  7.50000000
   2.11024616  2.11024616  7.50000000
   0.00000000  2.10840153 13.88586825
   2.10030867  4.22049233 13.88381232
   0.00000000  4.22049233 11.72684365
   2.10978841  2.10978841 11.72890095
   4.22049233  6.33073849  9.61024616
   6.33073849  0.00000000  9.61024616
   4.22049233  0.00000000  7.50000000
   6.33073849  6.33073849  7.50000000
   4.22049233  6.34067598 13.88381232
   6.33258312  0.00000000 13.88586825
   4.22049233  0.00000000 11.72684365
   6.33119624  6.33119624 11.72890095
   4.22049233  2.11024616  9.61024616
   6.33073849  4.22049233  9.61024616
   4.22049233  4.22049233  7.50000000
   6.33073849  2.11024616  7.50000000
   4.22049233  2.10030867 13.88381232
   6.34067598  4.22049233 13.88381232
   4.22049233  4.22049233 11.73684118
   6.33119624  2.10978841 11.72890095



--------------------------------------------------------------------------------------------------------


 k-point   1 :   0.0000 0.0000 0.0000  plane waves:   50745
 k-point   2 :   0.5000 0.0000 0.0000  plane waves:   50798
 k-point   3 :   0.5000 0.5000 0.0000  plane waves:   50752

 maximum and minimum number of plane-waves per node :     12720    12632

 maximum number of plane-waves:     50798
 maximum index in each direction: 
   IXMAX=   16   IYMAX=   16   IZMAX=   42
   IXMIN=  -17   IYMIN=  -17   IZMIN=  -42


 parallel 3D FFT for wavefunctions:
    minimum data exchange during FFTs selected (reduces bandwidth)
 parallel 3D FFT for charge:
    minimum data exchange during FFTs selected (reduces bandwidth)


 total amount of memory used by VASP MPI-rank0    78528. kBytes
=======================================================================

   base      :      30000. kBytes
   nonl-proj :      29343. kBytes
   fftplans  :       3857. kBytes
   grid      :       5885. kBytes
   one-center:        137. kBytes
   wavefun   :       9306. kBytes

     INWAV:  cpu time      0.0001: real time      0.0001
 Broyden mixing: mesh for mixing (old mesh)
   NGX = 33   NGY = 33   NGZ = 85
  (NGX  =108   NGY  =108   NGZ  =256)
  gives a total of  92565 points

 initial charge density was supplied:
 charge density of overlapping atoms calculated
 number of electron     458.0000000 magnetization 
 keeping initial charge density in first step


--------------------------------------------------------------------------------------------------------


 Maximum index for augmentation-charges          334 (set IRDMAX)


--------------------------------------------------------------------------------------------------------


 First call to EWALD:  gamma=   0.154
 Maximum number of real-space cells 4x 4x 2
 Maximum number of reciprocal cells 2x 2x 5

    FEWALD:  cpu time      0.0071: real time      0.0071


--------------------------------------- Iteration      1(   1)  ---------------------------------------


vdW kernel read from vdw_kernel.bindat
  0.0000  0.2424  0.5071  0.7962  1.1119  1.4567  1.8333  2.2446  2.6937  3.1842
  3.7199  4.3049  4.9438  5.6415  6.4036  7.2358  8.1446  9.1372 10.2212 11.4050
 12.6979 14.1099 15.6519 17.3360 19.1751 21.1837 23.3773 25.7729 28.3892 31.2465
 34.3669 37.7748 41.4965 45.5611 50.0000

    POTLOK:  cpu time      0.9280: real time      0.9315
    SETDIJ:  cpu time      0.1559: real time      0.1560
    TRIAL :  cpu time      5.3793: real time      5.4701
    CORREC:  cpu time      0.0014: real time      0.0014
    --------------------------------------------
      LOOP:  cpu time      6.4662: real time      6.6191

 eigenvalue-minimisations  :  2304
 total energy-change (2. order) : 0.4311519E+04  (-0.3069300E+05)
 number of electron     458.0000000 magnetization 
 augmentation part      458.0000000 magnetization 

 DIPCOR: dipole corrections for dipol
 direction  3 min pos     1,
 dipolmoment           0.000000      0.000000     -0.000248 electrons x Angstroem
 Tr[quadrupol]     -6318.707340

 energy correction for charged system         0.000000 eV
 dipol+quadrupol energy correction           -0.000000 eV
 added-field ion interaction          0.002003 eV  (added to PSCEN)


 Free energy of the ion-electron system (eV)
  ---------------------------------------------------
  alpha Z        PSCENC =       907.96610674
  Ewald energy   TEWEN  =    137215.36367639
  -Hartree energ DENC   =   -173314.00454123
  -exchange      EXHF   =         0.00000000
  -V(xc)+E(xc)   XCENC  =      1735.60166946
  PAW double counting   =     32391.11887895   -36187.02304673
  entropy T*S    EENTRO =        -0.02148446
  eigenvalues    EBANDS =     -6985.12333684
  atomic energy  EATOM  =     48547.64153090
  ---------------------------------------------------
  free energy    TOTEN  =      4311.51945318 eV

  energy without entropy =     4311.54093764  energy(sigma->0) =     4311.53019541


--------------------------------------------------------------------------------------------------------




--------------------------------------- Iteration      1(   2)  ---------------------------------------


    TRIAL :  cpu time      2.2433: real time      2.2442
    CORREC:  cpu time      0.0003: real time      0.0003
    --------------------------------------------
      LOOP:  cpu time      2.2488: real time      2.2593

 eigenvalue-minimisations  :  2304
 total energy-change (2. order) :-0.4303699E+04  (-0.4228630E+04)
 number of electron     458.0000000 magnetization 
 augmentation part      458.0000000 magnetization 

 DIPCOR: dipole corrections for dipol
 direction  3 min pos     1,
 dipolmoment           0.000000      0.000000     -0.000248 electrons x Angstroem
 Tr[quadrupol]     -6318.707340

 energy correction for charged system         0.000000 eV
 dipol+quadrupol energy correction           -0.000000 eV
 added-field ion interaction          0.002003 eV  (added to PSCEN)


 Free energy of the ion-electron system (eV)
  ---------------------------------------------------
  alpha Z        PSCENC =       907.96610674
  Ewald energy   TEWEN  =    137215.36367639
  -Hartree energ DENC   =   -173314.00454123
  -exchange      EXHF   =         0.00000000
  -V(xc)+E(xc)   XCENC  =      1735.60166946
  PAW double counting   =     32391.11887895   -36187.02304673
  entropy T*S    EENTRO =        -0.00000000
  eigenvalues    EBANDS =    -11288.84415690
  atomic energy  EATOM  =     48547.64153090
  ---------------------------------------------------
  free energy    TOTEN  =         7.82011758 eV

  energy without entropy =        7.82011758  energy(sigma->0) =        7.82011758


--------------------------------------------------------------------------------------------------------




--------------------------------------- Iteration      1(   3)  ---------------------------------------


    TRIAL :  cpu time      2.3626: real time      2.3628
    CORREC:  cpu time      0.0003: real time      0.0003
    --------------------------------------------
      LOOP:  cpu time      2.3676: real time      2.3773

 eigenvalue-minimisations  :  2304
 total energy-change (2. order) :-0.3136269E+03  (-0.3116788E+03)
 number of electron     458.0000000 magnetization 
 augmentation part      458.0000000 magnetization 

 DIPCOR: dipole corrections for dipol
 direction  3 min pos     1,
 dipolmoment           0.000000      0.000000     -0.000248 electrons x Angstroem
 Tr[quadrupol]     -6318.707340

 energy correction for charged system         0.000000 eV
 dipol+quadrupol energy correction           -0.000000 eV
 added-field ion interaction          0.002003 eV  (added to PSCEN)


 Free energy of the ion-electron system (eV)
  ---------------------------------------------------
  alpha Z        PSCENC =       907.96610674
  Ewald energy   TEWEN  =    137215.36367639
  -Hartree energ DENC   =   -173314.00454123
  -exchange      EXHF   =         0.00000000
  -V(xc)+E(xc)   XCENC  =      1735.60166946
  PAW double counting   =     32391.11887895   -36187.02304673
  entropy T*S    EENTRO =        -0.00000000
  eigenvalues    EBANDS =    -11602.47109191
  atomic energy  EATOM  =     48547.64153090
  ---------------------------------------------------
  free energy    TOTEN  =      -305.80681743 eV

  energy without entropy =     -305.80681743  energy(sigma->0) =     -305.80681743


--------------------------------------------------------------------------------------------------------




--------------------------------------- Iteration      1(   4)  ---------------------------------------


    TRIAL :  cpu time      2.3600: real time      2.3603
    CORREC:  cpu time      0.0003: real time      0.0003
    --------------------------------------------
      LOOP:  cpu time      2.3668: real time      2.3749

 eigenvalue-minimisations  :  2368
 total energy-change (2. order) :-0.5885168E+01  (-0.5878423E+01)
 number of electron     458.0000000 magnetization 
 augmentation part      458.0000000 magnetization 

 DIPCOR: dipole corrections for dipol
 direction  3 min pos     1,
 dipolmoment           0.000000      0.000000     -0.000248 electrons x Angstroem
 Tr[quadrupol]     -6318.707340

 energy correction for charged system         0.000000 eV
 dipol+quadrupol energy correction           -0.000000 eV
 added-field ion interaction          0.002003 eV  (added to PSCEN)


 Free energy of the ion-electron system (eV)
  ---------------------------------------------------
  alpha Z        PSCENC =       907.96610674
  Ewald energy   TEWEN  =    137215.36367639
  -Hartree energ DENC   =   -173314.00454123
  -exchange      EXHF   =         0.00000000
  -V(xc)+E(xc)   XCENC  =      1735.60166946
  PAW double counting   =     32391.11887895   -36187.02304673
  entropy T*S    EENTRO =        -0.00000000
  eigenvalues    EBANDS =    -11608.35625948
  atomic energy  EATOM  =     48547.64153090
  ---------------------------------------------------
  free energy    TOTEN  =      -311.69198500 eV

  energy without entropy =     -311.69198500  energy(sigma->0) =     -311.69198500


--------------------------------------------------------------------------------------------------------




--------------------------------------- Iteration      1(   5)  ---------------------------------------


    TRIAL :  cpu time      2.1364: real time      2.1367
    CORREC:  cpu time      0.0003: real time      0.0003
    CHARGE:  cpu time      0.0743: real time      0.0745
    --------------------------------------------
      LOOP:  cpu time      2.2165: real time      2.2258

 eigenvalue-minimisations  :  2304
 total energy-change (2. order) :-0.7435833E-01  (-0.7435590E-01)
 number of electron     457.9999388 magnetization 
 augmentation part      160.5734996 magnetization 

 DIPCOR: dipole corrections for dipol
 direction  3 min pos     1,
 dipolmoment           0.000000      0.000000     -0.000248 electrons x Angstroem
 Tr[quadrupol]     -6318.707340

 energy correction for charged system         0.000000 eV
 dipol+quadrupol energy correction           -0.000000 eV
 added-field ion interaction          0.002003 eV  (added to PSCEN)


 Free energy of the ion-electron system (eV)
  ---------------------------------------------------
  alpha Z        PSCENC =       907.96610674
  Ewald energy   TEWEN  =    137215.36367639
  -Hartree energ DENC   =   -173314.00454123
  -exchange      EXHF   =         0.00000000
  -V(xc)+E(xc)   XCENC  =      1735.60166946
  PAW double counting   =     32391.11887895   -36187.02304673
  entropy T*S    EENTRO =        -0.00000000
  eigenvalues    EBANDS =    -11608.43061781
  atomic energy  EATOM  =     48547.64153090
  ---------------------------------------------------
  free energy    TOTEN  =      -311.76634333 eV

  energy without entropy =     -311.76634333  energy(sigma->0) =     -311.76634333


--------------------------------------------------------------------------------------------------------




--------------------------------------- Iteration      1(   6)  ---------------------------------------


    POTLOK:  cpu time      0.3306: real time      0.3306
    SETDIJ:  cpu time      0.1761: real time      0.1761
    TRIAL :  cpu time      0.6711: real time      0.6721
    CORREC:  cpu time      0.8137: real time      0.8142
    CHARGE:  cpu time      0.0557: real time      0.0558
    --------------------------------------------
      LOOP:  cpu time      2.0612: real time      2.0630

 eigenvalue-minimisations  :     0
 total energy-change (2. order) : 0.2025848E+03  (-0.1135186E+03)
 number of electron     457.9999271 magnetization 
 augmentation part      157.2120509 magnetization 

 DIPCOR: dipole corrections for dipol
 direction  3 min pos     1,
 dipolmoment           0.000000      0.000000      0.219936 electrons x Angstroem
 Tr[quadrupol]     -6352.338592

 energy correction for charged system         0.000000 eV
 dipol+quadrupol energy correction           -0.002880 eV
 added-field ion interaction         -1.772731 eV  (added to PSCEN)


 Free energy of the ion-electron system (eV)
  ---------------------------------------------------
  alpha Z        PSCENC =       904.08050184
  Ewald energy   TEWEN  =    137215.36367639
  -Hartree energ DENC   =   -177335.30232954
  -exchange      EXHF   =         0.00000000
  -V(xc)+E(xc)   XCENC  =      1872.30749885
  PAW double counting   =     37228.15246600   -40996.23588358
  entropy T*S    EENTRO =        -0.00000000
  eigenvalues    EBANDS =     -7545.18897063
  atomic energy  EATOM  =     48547.64153090
  ---------------------------------------------------
  free energy    TOTEN  =      -109.18150978 eV

  energy without entropy =     -109.18150978  energy(sigma->0) =     -109.18150978


--------------------------------------------------------------------------------------------------------




--------------------------------------- Iteration      1(   7)  ---------------------------------------


    POTLOK:  cpu time      0.3095: real time      0.3096
    SETDIJ:  cpu time      0.1906: real time      0.1907
    TRIAL :  cpu time      0.6019: real time      0.6023
    CORREC:  cpu time      0.7948: real time      0.7949
    CHARGE:  cpu time      0.0563: real time      0.0563
    --------------------------------------------
      LOOP:  cpu time      1.9595: real time      1.9683

 eigenvalue-minimisations  :     0
 total energy-change (2. order) :-0.1140872E+03  (-0.7959653E+01)
 number of electron     457.9999260 magnetization 
 augmentation part      155.2941811 magnetization 

 DIPCOR: dipole corrections for dipol
 direction  3 min pos     1,
 dipolmoment           0.000000      0.000000      0.186280 electrons x Angstroem
 Tr[quadrupol]     -6359.675457

 energy correction for charged system         0.000000 eV
 dipol+quadrupol energy correction           -0.002066 eV
 added-field ion interaction         -1.501460 eV  (added to PSCEN)


 Free energy of the ion-electron system (eV)
  ---------------------------------------------------
  alpha Z        PSCENC =       905.92396733
  Ewald energy   TEWEN  =    137215.36367639
  -Hartree energ DENC   =   -175324.40652129
  -exchange      EXHF   =         0.00000000
  -V(xc)+E(xc)   XCENC  =      1796.40662802
  PAW double counting   =     36012.11597304   -39843.82490726
  entropy T*S    EENTRO =        -0.00000000
  eigenvalues    EBANDS =     -9532.48902736
  atomic energy  EATOM  =     48547.64153090
  ---------------------------------------------------
  free energy    TOTEN  =      -223.26868023 eV

  energy without entropy =     -223.26868023  energy(sigma->0) =     -223.26868023


--------------------------------------------------------------------------------------------------------




--------------------------------------- Iteration      1(   8)  ---------------------------------------


    POTLOK:  cpu time      0.3103: real time      0.3103
    SETDIJ:  cpu time      0.1915: real time      0.1915
    TRIAL :  cpu time      0.6001: real time      0.6001
    CORREC:  cpu time      0.7998: real time      0.7998
    CHARGE:  cpu time      0.0550: real time      0.0550
    --------------------------------------------
      LOOP:  cpu time      1.9708: real time      1.9711

 eigenvalue-minimisations  :     0
 total energy-change (2. order) :-0.7987649E+01  (-0.4960319E+01)
 number of electron     457.9999241 magnetization 
 augmentation part      155.4275481 magnetization 

 DIPCOR: dipole corrections for dipol
 direction  3 min pos     1,
 dipolmoment           0.000000      0.000000      0.111240 electrons x Angstroem
 Tr[quadrupol]     -6358.048755

 energy correction for charged system         0.000000 eV
 dipol+quadrupol energy correction           -0.000737 eV
 added-field ion interaction         -0.896619 eV  (added to PSCEN)


 Free energy of the ion-electron system (eV)
  ---------------------------------------------------
  alpha Z        PSCENC =       906.66998196
  Ewald energy   TEWEN  =    137215.36367639
  -Hartree energ DENC   =   -175273.32846301
  -exchange      EXHF   =         0.00000000
  -V(xc)+E(xc)   XCENC  =      1786.92216767
  PAW double counting   =     35913.85644983   -39676.69325752
  entropy T*S    EENTRO =        -0.00000000
  eigenvalues    EBANDS =     -9651.68841571
  atomic energy  EATOM  =     48547.64153090
  ---------------------------------------------------
  free energy    TOTEN  =      -231.25632950 eV

  energy without entropy =     -231.25632950  energy(sigma->0) =     -231.25632950


--------------------------------------------------------------------------------------------------------




--------------------------------------- Iteration      1(   9)  ---------------------------------------


    POTLOK:  cpu time      0.3130: real time      0.3130
    SETDIJ:  cpu time      0.1873: real time      0.1873
    TRIAL :  cpu time      0.5996: real time      0.5997
    CORREC:  cpu time      0.7940: real time      0.7941
    CHARGE:  cpu time      0.0551: real time      0.0551
    --------------------------------------------
      LOOP:  cpu time      1.9534: real time      1.9635

 eigenvalue-minimisations  :     0
 total energy-change (2. order) :-0.4817452E+01  (-0.1820044E+01)
 number of electron     457.9999242 magnetization 
 augmentation part      155.3976052 magnetization 

 DIPCOR: dipole corrections for dipol
 direction  3 min pos     1,
 dipolmoment           0.000000      0.000000      0.130328 electrons x Angstroem
 Tr[quadrupol]     -6348.470735

 energy correction for charged system         0.000000 eV
 dipol+quadrupol energy correction           -0.001011 eV
 added-field ion interaction         -1.050470 eV  (added to PSCEN)


 Free energy of the ion-electron system (eV)
  ---------------------------------------------------
  alpha Z        PSCENC =       907.27071303
  Ewald energy   TEWEN  =    137215.36367639
  -Hartree energ DENC   =   -175106.96206353
  -exchange      EXHF   =         0.00000000
  -V(xc)+E(xc)   XCENC  =      1786.02272285
  PAW double counting   =     35822.83759089   -39625.81851990
  entropy T*S    EENTRO =        -0.00000000
  eigenvalues    EBANDS =     -9782.42943255
  atomic energy  EATOM  =     48547.64153090
  ---------------------------------------------------
  free energy    TOTEN  =      -236.07378193 eV

  energy without entropy =     -236.07378193  energy(sigma->0) =     -236.07378193


--------------------------------------------------------------------------------------------------------




--------------------------------------- Iteration      1(  10)  ---------------------------------------


    POTLOK:  cpu time      0.3110: real time      0.3110
    SETDIJ:  cpu time      0.1883: real time      0.1883
    TRIAL :  cpu time      0.6009: real time      0.6010
    CORREC:  cpu time      0.7950: real time      0.7950
    CHARGE:  cpu time      0.0551: real time      0.0551
    --------------------------------------------
      LOOP:  cpu time      1.9643: real time      1.9648

 eigenvalue-minimisations  :     0
 total energy-change (2. order) :-0.1855090E+01  (-0.6464827E+00)
 number of electron     457.9999249 magnetization 
 augmentation part      155.3477075 magnetization 

 DIPCOR: dipole corrections for dipol
 direction  3 min pos     1,
 dipolmoment           0.000000      0.000000      0.158066 electrons x Angstroem
 Tr[quadrupol]     -6348.197693

 energy correction for charged system         0.000000 eV
 dipol+quadrupol energy correction           -0.001487 eV
 added-field ion interaction         -1.274049 eV  (added to PSCEN)


 Free energy of the ion-electron system (eV)
  ---------------------------------------------------
  alpha Z        PSCENC =       907.00710213
  Ewald energy   TEWEN  =    137215.36367639
  -Hartree energ DENC   =   -174896.77220954
  -exchange      EXHF   =         0.00000000
  -V(xc)+E(xc)   XCENC  =      1783.87783166
  PAW double counting   =     35709.92649023   -39518.01007997
  entropy T*S    EENTRO =        -0.00000000
  eigenvalues    EBANDS =     -9986.96321362
  atomic energy  EATOM  =     48547.64153090
  ---------------------------------------------------
  free energy    TOTEN  =      -237.92887181 eV

  energy without entropy =     -237.92887181  energy(sigma->0) =     -237.92887181


--------------------------------------------------------------------------------------------------------




--------------------------------------- Iteration      1(  11)  ---------------------------------------


    POTLOK:  cpu time      0.3121: real time      0.3122
    SETDIJ:  cpu time      0.1910: real time      0.1910
    TRIAL :  cpu time      0.6002: real time      0.6002
    CORREC:  cpu time      0.7990: real time      0.7991
    CHARGE:  cpu time      0.0547: real time      0.0547
    --------------------------------------------
      LOOP:  cpu time      1.9628: real time      1.9714

 eigenvalue-minimisations  :     0
 total energy-change (2. order) :-0.6479457E+00  (-0.2554657E+00)
 number of electron     457.9999254 magnetization 
 augmentation part      155.4710125 magnetization 

 DIPCOR: dipole corrections for dipol
 direction  3 min pos     1,
 dipolmoment           0.000000      0.000000      0.149075 electrons x Angstroem
 Tr[quadrupol]     -6349.458235

 energy correction for charged system         0.000000 eV
 dipol+quadrupol energy correction           -0.001323 eV
 added-field ion interaction         -1.201575 eV  (added to PSCEN)


 Free energy of the ion-electron system (eV)
  ---------------------------------------------------
  alpha Z        PSCENC =       906.73912197
  Ewald energy   TEWEN  =    137215.36367639
  -Hartree energ DENC   =   -174833.44618257
  -exchange      EXHF   =         0.00000000
  -V(xc)+E(xc)   XCENC  =      1782.87451352
  PAW double counting   =     35651.53331245   -39449.84160252
  entropy T*S    EENTRO =        -0.00000000
  eigenvalues    EBANDS =    -10059.44118768
  atomic energy  EATOM  =     48547.64153090
  ---------------------------------------------------
  free energy    TOTEN  =      -238.57681753 eV

  energy without entropy =     -238.57681753  energy(sigma->0) =     -238.57681753


--------------------------------------------------------------------------------------------------------




--------------------------------------- Iteration      1(  12)  ---------------------------------------


    POTLOK:  cpu time      0.3131: real time      0.3132
    SETDIJ:  cpu time      0.1893: real time      0.1893
    TRIAL :  cpu time      0.6006: real time      0.6010
    CORREC:  cpu time      0.8091: real time      0.8091
    CHARGE:  cpu time      0.0554: real time      0.0554
    --------------------------------------------
      LOOP:  cpu time      1.9726: real time      1.9826

 eigenvalue-minimisations  :     0
 total energy-change (2. order) :-0.2554086E+00  (-0.9903351E-01)
 number of electron     457.9999255 magnetization 
 augmentation part      155.6002643 magnetization 

 DIPCOR: dipole corrections for dipol
 direction  3 min pos     1,
 dipolmoment           0.000000      0.000000      0.140420 electrons x Angstroem
 Tr[quadrupol]     -6350.492579

 energy correction for charged system         0.000000 eV
 dipol+quadrupol energy correction           -0.001174 eV
 added-field ion interaction         -1.131813 eV  (added to PSCEN)


 Free energy of the ion-electron system (eV)
  ---------------------------------------------------
  alpha Z        PSCENC =       906.76032096
  Ewald energy   TEWEN  =    137215.36367639
  -Hartree energ DENC   =   -174873.08403464
  -exchange      EXHF   =         0.00000000
  -V(xc)+E(xc)   XCENC  =      1783.34256614
  PAW double counting   =     35639.05516791   -39436.12277790
  entropy T*S    EENTRO =        -0.00000000
  eigenvalues    EBANDS =    -10021.78867585
  atomic energy  EATOM  =     48547.64153090
  ---------------------------------------------------
  free energy    TOTEN  =      -238.83222609 eV

  energy without entropy =     -238.83222609  energy(sigma->0) =     -238.83222609


--------------------------------------------------------------------------------------------------------




--------------------------------------- Iteration      1(  13)  ---------------------------------------


    POTLOK:  cpu time      0.3182: real time      0.3182
    SETDIJ:  cpu time      0.1890: real time      0.1890
    TRIAL :  cpu time      0.5990: real time      0.5991
    CORREC:  cpu time      0.7928: real time      0.7928
    CHARGE:  cpu time      0.0563: real time      0.0563
    --------------------------------------------
      LOOP:  cpu time      1.9612: real time      1.9701

 eigenvalue-minimisations  :     0
 total energy-change (2. order) :-0.9903138E-01  (-0.4932416E-01)
 number of electron     457.9999255 magnetization 
 augmentation part      155.6440541 magnetization 

 DIPCOR: dipole corrections for dipol
 direction  3 min pos     1,
 dipolmoment           0.000000      0.000000      0.138915 electrons x Angstroem
 Tr[quadrupol]     -6351.051645

 energy correction for charged system         0.000000 eV
 dipol+quadrupol energy correction           -0.001149 eV
 added-field ion interaction         -1.119690 eV  (added to PSCEN)


 Free energy of the ion-electron system (eV)
  ---------------------------------------------------
  alpha Z        PSCENC =       906.83097654
  Ewald energy   TEWEN  =    137215.36367639
  -Hartree energ DENC   =   -174914.99859388
  -exchange      EXHF   =         0.00000000
  -V(xc)+E(xc)   XCENC  =      1783.78791184
  PAW double counting   =     35638.01865595   -39438.99897756
  entropy T*S    EENTRO =        -0.00000000
  eigenvalues    EBANDS =     -9976.57643765
  atomic energy  EATOM  =     48547.64153090
  ---------------------------------------------------
  free energy    TOTEN  =      -238.93125747 eV

  energy without entropy =     -238.93125747  energy(sigma->0) =     -238.93125747


--------------------------------------------------------------------------------------------------------




--------------------------------------- Iteration      1(  14)  ---------------------------------------


    POTLOK:  cpu time      0.3132: real time      0.3132
    SETDIJ:  cpu time      0.1905: real time      0.1905
    TRIAL :  cpu time      0.5994: real time      0.5995
    CORREC:  cpu time      0.8001: real time      0.8001
    CHARGE:  cpu time      0.0551: real time      0.0551
    --------------------------------------------
      LOOP:  cpu time      1.9637: real time      1.9730

 eigenvalue-minimisations  :     0
 total energy-change (2. order) :-0.4938048E-01  (-0.2342591E-01)
 number of electron     457.9999255 magnetization 
 augmentation part      155.6194160 magnetization 

 DIPCOR: dipole corrections for dipol
 direction  3 min pos     1,
 dipolmoment           0.000000      0.000000      0.140761 electrons x Angstroem
 Tr[quadrupol]     -6351.442908

 energy correction for charged system         0.000000 eV
 dipol+quadrupol energy correction           -0.001180 eV
 added-field ion interaction         -1.134564 eV  (added to PSCEN)


 Free energy of the ion-electron system (eV)
  ---------------------------------------------------
  alpha Z        PSCENC =       906.84454087
  Ewald energy   TEWEN  =    137215.36367639
  -Hartree energ DENC   =   -174934.36465428
  -exchange      EXHF   =         0.00000000
  -V(xc)+E(xc)   XCENC  =      1783.81737105
  PAW double counting   =     35637.03032941   -39440.08659042
  entropy T*S    EENTRO =        -0.00000000
  eigenvalues    EBANDS =     -9955.22684185
  atomic energy  EATOM  =     48547.64153090
  ---------------------------------------------------
  free energy    TOTEN  =      -238.98063795 eV

  energy without entropy =     -238.98063795  energy(sigma->0) =     -238.98063795


--------------------------------------------------------------------------------------------------------




--------------------------------------- Iteration      1(  15)  ---------------------------------------


[...]
    269       6.6313      0.00000
    270       6.6313      0.00000
    271       6.6836      0.00000
    272       6.8059      0.00000
    273       7.1001      0.00000
    274       7.1001      0.00000
    275       7.4062      0.00000
    276       7.7422      0.00000
    277       7.7422      0.00000
    278       7.7489      0.00000
    279       7.8713      0.00000
    280       8.1253      0.00000
    281       8.1326      0.00000
    282       8.1356      0.00000
    283       8.1366      0.00000
    284       8.1441      0.00000
    285       8.1492      0.00000
    286       8.1595      0.00000
    287       8.1608      0.00000
    288       8.2524      0.00000
    289       8.3120      0.00000
    290       8.3230      0.00000
    291       8.3620      0.00000
    292       8.3928      0.00000
    293       8.4661      0.00000
    294       8.5440      0.00000
    295       8.5571      0.00000
    296       8.6016      0.00000
    297       8.6063      0.00000
    298       8.6187      0.00000
    299       8.6191      0.00000
    300       8.6752      0.00000
    301       8.9250      0.00000
    302       8.9399      0.00000
    303       9.0037      0.00000
    304       9.0069      0.00000
    305       9.3685      0.00000
    306       9.4210      0.00000
    307       9.4673      0.00000
    308       9.4817      0.00000
    309       9.5169      0.00000
    310       9.6440      0.00000
    311       9.6665      0.00000
    312       9.7066      0.00000
    313       9.7529      0.00000
    314       9.8044      0.00000
    315       9.8990      0.00000
    316       9.9063      0.00000
    317      10.2459      0.00000
    318      10.3185      0.00000
    319      10.4568      0.00000
    320      10.4721      0.00000


--------------------------------------------------------------------------------------------------------


 soft charge-density along one line, spin component           1
         0         1         2         3         4         5         6         7         8         9
 total charge-density along one line

 pseudopotential strength for first ion, spin component:           1
 10.255  13.636   0.000   0.022   0.000  -0.000  -0.062  -0.000
 13.636  18.132   0.000   0.028   0.000  -0.000  -0.081  -0.000
  0.000   0.000  -4.344  -0.000  -0.000   8.545   0.000   0.000
  0.022   0.028  -0.000  -4.333   0.000   0.000   8.486  -0.000
  0.000   0.000  -0.000   0.000  -4.344   0.000  -0.000   8.545
 -0.000  -0.000   8.545   0.000   0.000 -18.946  -0.000  -0.000
 -0.062  -0.081   0.000   8.486  -0.000  -0.000 -18.755   0.000
 -0.000  -0.000   0.000  -0.000   8.545  -0.000   0.000 -18.946
 total augmentation occupancy for first ion, spin component:           1
  7.085  -3.208   0.000   2.064  -0.000   0.000   0.373   0.000
 -3.208   1.867   0.000  -1.586   0.000   0.000  -0.225   0.000
  0.000   0.000   0.832   0.000   0.000   0.058   0.000   0.000
  2.064  -1.586   0.000   2.238   0.000   0.000   0.208   0.000
 -0.000   0.000   0.000   0.000   0.832  -0.000   0.000   0.058
  0.000   0.000   0.058   0.000  -0.000   0.004   0.000   0.000
  0.373  -0.225   0.000   0.208   0.000   0.000   0.028   0.000
  0.000   0.000   0.000   0.000   0.058   0.000   0.000   0.004


------------------------ aborting loop because EDIFF is reached ----------------------------------------


    FORLOC:  cpu time      0.0039: real time      0.0039
    FORNL :  cpu time      0.4176: real time      0.4181
    STRESS:  cpu time      1.3345: real time      1.3346
    FORCOR:  cpu time      0.3208: real time      0.3208
    OFIELD:  cpu time      0.0001: real time      0.0001

  FORCE on cell =-STRESS in cart. coord.  units (eV):
  Direction    XX          YY          ZZ          XY          YZ          ZX
  --------------------------------------------------------------------------------------
  Alpha Z   907.96410   907.96410   907.96410
  Ewald  157715.86896157715.86896************     0.00000     0.00000    -0.00000
  Hartree168095.72075168095.72075************    -0.00000    -0.00000    -0.00000
  E(xc)   -2568.31036 -2568.31036 -2568.94683    -0.00000    -0.00000     0.00000
  Local  ************************335379.61144    -0.00000    -0.00000    -0.00000
  n-local -2831.81241 -2832.58525 -2861.84263    -0.00000     0.00000     0.00001
  augment  1084.08374  1084.08374  1074.50494     0.00000    -0.00000     0.00000
  Kinetic  7519.58401  7522.03419  7536.15698    -0.00000    -0.00000    -0.00001
  Fock        0.00000     0.00000     0.00000     0.00000     0.00000     0.00000
  -------------------------------------------------------------------------------------
  Total      -8.72819    -8.72819    12.42958     0.00000     0.00000     0.00000
  in kB      -9.20116    -9.20116    13.10312     0.00000     0.00000     0.00000
  external pressure =       -1.77 kB  Pullay stress =        0.00 kB


 VOLUME and BASIS-vectors are now :
 -----------------------------------------------------------------------------
  energy-cutoff  :      600.00
  volume of cell :     1519.82
      direct lattice vectors                 reciprocal lattice vectors
     8.440984654  0.000000000  0.000000000     0.118469591  0.000000000  0.000000000
     0.000000000  8.440984654  0.000000000     0.000000000  0.118469591  0.000000000
     0.000000000  0.000000000 21.330738491     0.000000000  0.000000000  0.046880702

  length of vectors
     8.440984654  8.440984654 21.330738491     0.118469591  0.118469591  0.046880702


 FORCES acting on ions:
    Electron-Ion                     Ewald-Force                    Non-Local-Force
 -----------------------------------------------------------------------------------------------
   0.116E-12 0.269E-13 -.844E+03   0.222E-13 -.311E-14 0.818E+03   0.000E+00 0.529E-22 0.272E+02
   0.399E-12 -.283E-12 -.146E+04   -.999E-14 -.222E-14 0.152E+04   0.000E+00 0.000E+00 -.600E+02
   -.480E-13 -.132E+00 0.208E+04   0.560E-13 0.132E+00 -.207E+04   -.662E-23 -.141E-03 -.647E+01
   0.132E+00 -.421E-13 0.208E+04   -.132E+00 0.671E-13 -.207E+04   0.141E-03 -.529E-22 -.647E+01
   -.524E-13 -.519E-12 0.713E+03   -.150E-10 0.150E-10 -.714E+03   0.000E+00 -.496E-23 0.459E+00
   0.493E+00 -.493E+00 0.715E+03   -.488E+00 0.488E+00 -.715E+03   -.282E-02 0.282E-02 0.483E+00
   -.469E-13 -.291E+01 -.642E+03   0.157E-11 0.289E+01 0.643E+03   0.000E+00 0.201E-01 -.108E+00
   0.291E+01 -.259E-12 -.642E+03   -.289E+01 -.151E-11 0.643E+03   -.201E-01 0.331E-22 -.108E+00
   -.166E-13 -.269E-12 -.200E+04   0.444E-12 -.416E-12 0.200E+04   0.000E+00 0.265E-22 0.537E+01
   0.185E+02 -.185E+02 -.198E+04   -.186E+02 0.186E+02 0.198E+04   0.862E-01 -.862E-01 0.547E+01
   -.489E-13 0.132E+00 0.208E+04   -.277E-12 -.132E+00 -.207E+04   0.132E-22 0.141E-03 -.647E+01
   0.128E+00 0.613E-12 0.208E+04   -.126E+00 0.131E-10 -.207E+04   -.157E-02 -.662E-23 -.647E+01
   -.585E-13 0.529E-12 0.715E+03   -.165E-10 0.000E+00 -.715E+03   0.000E+00 -.993E-23 0.417E+00
   0.493E+00 0.493E+00 0.715E+03   -.488E+00 -.488E+00 -.715E+03   -.282E-02 -.282E-02 0.483E+00
   -.465E-13 0.291E+01 -.642E+03   0.304E-11 -.289E+01 0.643E+03   -.132E-22 -.201E-01 -.108E+00
   0.427E+01 0.154E-11 -.635E+03   -.420E+01 0.178E-14 0.636E+03   -.770E-01 -.265E-22 -.232E+00
   -.341E-13 0.123E-11 -.199E+04   -.355E-13 -.995E-13 0.198E+04   0.331E-23 0.000E+00 0.539E+01
   0.185E+02 0.185E+02 -.198E+04   -.186E+02 -.186E+02 0.198E+04   0.862E-01 0.862E-01 0.547E+01
   0.908E-12 -.128E+00 0.208E+04   -.129E-10 0.126E+00 -.207E+04   0.000E+00 0.157E-02 -.647E+01
   -.132E+00 -.673E-14 0.208E+04   0.132E+00 0.471E-13 -.207E+04   -.141E-03 0.000E+00 -.647E+01
   0.826E-12 -.976E-13 0.715E+03   0.145E-11 0.150E-10 -.715E+03   0.000E+00 0.000E+00 0.417E+00
   -.493E+00 -.493E+00 0.715E+03   0.488E+00 0.488E+00 -.715E+03   0.282E-02 0.282E-02 0.483E+00
   0.817E-12 -.427E+01 -.635E+03   -.141E-11 0.420E+01 0.636E+03   -.232E-22 0.770E-01 -.232E+00
   -.291E+01 -.215E-12 -.642E+03   0.289E+01 -.156E-11 0.643E+03   0.201E-01 -.265E-22 -.108E+00
   0.894E-12 -.822E-12 -.199E+04   0.782E-13 -.355E-14 0.198E+04   -.993E-23 0.000E+00 0.539E+01
   -.185E+02 -.185E+02 -.198E+04   0.186E+02 0.186E+02 0.198E+04   -.862E-01 -.862E-01 0.547E+01
   0.905E-12 0.128E+00 0.208E+04   -.131E-10 -.126E+00 -.207E+04   -.265E-22 -.157E-02 -.647E+01
   -.128E+00 0.148E-12 0.208E+04   0.126E+00 0.131E-10 -.207E+04   0.157E-02 -.265E-22 -.647E+01
   0.881E-12 0.159E-11 0.715E+03   -.782E-13 0.355E-14 -.715E+03   0.000E+00 0.000E+00 0.560E+00
   -.493E+00 0.493E+00 0.715E+03   0.488E+00 -.488E+00 -.715E+03   0.282E-02 -.282E-02 0.483E+00
   0.806E-12 0.427E+01 -.635E+03   -.284E-13 -.420E+01 0.636E+03   0.000E+00 -.770E-01 -.232E+00
   -.427E+01 -.126E-11 -.635E+03   0.420E+01 0.000E+00 0.636E+03   0.770E-01 0.000E+00 -.232E+00
   0.875E-12 0.374E-12 -.191E+04   -.426E-13 -.391E-13 0.191E+04   0.000E+00 0.000E+00 0.356E+01
   -.185E+02 0.185E+02 -.198E+04   0.186E+02 -.186E+02 0.198E+04   -.862E-01 0.862E-01 0.547E+01
   -.660E-13 -.418E+00 0.535E+03   0.409E-13 0.412E+00 -.535E+03   0.000E+00 0.834E-02 -.736E-01
   0.418E+00 0.190E-12 0.535E+03   -.412E+00 0.391E-13 -.535E+03   -.834E-02 0.000E+00 -.736E-01
   -.787E-13 0.599E-12 0.156E+04   0.853E-11 -.844E-11 -.156E+04   0.132E-22 0.000E+00 0.355E+01
   0.967E-01 -.967E-01 0.156E+04   -.959E-01 0.959E-01 -.156E+04   -.109E-02 0.109E-02 0.355E+01
   -.567E-13 -.744E+01 -.152E+04   -.871E-12 0.738E+01 0.153E+04   -.529E-22 0.582E-01 -.509E+01
   0.744E+01 -.209E-12 -.152E+04   -.738E+01 0.881E-12 0.153E+04   -.582E-01 0.000E+00 -.509E+01
   -.572E-13 0.606E-12 -.478E+03   -.853E-13 0.639E-13 0.478E+03   0.000E+00 0.662E-23 0.256E+00
   0.265E+01 -.265E+01 -.473E+03   -.263E+01 0.263E+01 0.473E+03   -.107E-01 0.107E-01 0.319E+00
   -.563E-13 0.418E+00 0.535E+03   0.142E-13 -.412E+00 -.535E+03   0.132E-22 -.834E-02 -.736E-01
   0.398E+00 0.687E-12 0.536E+03   -.425E+00 -.764E-11 -.536E+03   0.366E-01 -.165E-22 -.943E-01
   -.766E-13 0.114E-11 0.156E+04   0.845E-11 -.796E-12 -.156E+04   0.000E+00 0.000E+00 0.355E+01
   0.967E-01 0.967E-01 0.156E+04   -.959E-01 -.959E-01 -.156E+04   -.109E-02 -.109E-02 0.355E+01
   -.466E-13 0.744E+01 -.152E+04   -.774E-12 -.738E+01 0.153E+04   0.397E-22 -.582E-01 -.509E+01
   0.243E+02 0.121E-11 -.149E+04   -.240E+02 0.810E-11 0.149E+04   -.342E+00 -.529E-22 -.511E+01
   -.705E-13 -.707E-13 -.473E+03   -.741E-11 0.711E-14 0.473E+03   0.000E+00 0.000E+00 0.267E+00
   0.265E+01 0.265E+01 -.473E+03   -.263E+01 -.263E+01 0.473E+03   -.107E-01 -.107E-01 0.319E+00
   0.325E-12 -.398E+00 0.536E+03   0.764E-11 0.425E+00 -.536E+03   0.000E+00 -.366E-01 -.943E-01
   -.418E+00 0.168E-12 0.535E+03   0.412E+00 0.142E-13 -.535E+03   0.834E-02 0.116E-22 -.736E-01
   0.388E-12 -.256E-12 0.156E+04   0.845E-12 -.846E-11 -.156E+04   0.000E+00 -.397E-22 0.355E+01
   -.967E-01 -.967E-01 0.156E+04   0.959E-01 0.959E-01 -.156E+04   0.109E-02 0.109E-02 0.355E+01
   0.358E-12 -.243E+02 -.149E+04   -.816E-11 0.240E+02 0.149E+04   -.170E-22 0.342E+00 -.511E+01
   -.744E+01 -.168E-12 -.152E+04   0.738E+01 0.924E-12 0.153E+04   0.582E-01 0.000E+00 -.509E+01
   0.298E-12 -.279E-12 -.473E+03   -.711E-14 0.738E-11 0.473E+03   0.000E+00 0.000E+00 0.267E+00
   -.265E+01 -.265E+01 -.473E+03   0.263E+01 0.263E+01 0.473E+03   0.107E-01 0.107E-01 0.319E+00
   0.315E-12 0.398E+00 0.536E+03   0.763E-11 -.425E+00 -.536E+03   0.265E-22 0.366E-01 -.943E-01
   -.398E+00 0.166E-11 0.536E+03   0.425E+00 -.769E-11 -.536E+03   -.366E-01 -.389E-22 -.943E-01
   0.358E-12 0.970E-12 0.156E+04   0.824E-12 -.838E-12 -.156E+04   0.000E+00 0.000E+00 0.355E+01
   -.967E-01 0.967E-01 0.156E+04   0.959E-01 -.959E-01 -.156E+04   0.109E-02 -.109E-02 0.355E+01
   0.348E-12 0.243E+02 -.149E+04   -.820E-11 -.240E+02 0.149E+04   0.265E-22 -.342E+00 -.511E+01
   -.243E+02 -.135E-11 -.149E+04   0.240E+02 0.819E-11 0.149E+04   0.342E+00 0.000E+00 -.511E+01
   0.296E-12 -.754E-12 -.473E+03   -.497E-13 0.426E-13 0.473E+03   0.000E+00 0.265E-22 -.205E+00
   -.265E+01 0.265E+01 -.473E+03   0.263E+01 -.263E+01 0.473E+03   0.107E-01 -.107E-01 0.319E+00
 -----------------------------------------------------------------------------------------------
   0.261E-10 0.158E-10 0.518E+02   0.306E-12 -.480E-13 0.568E-12   -.139E-16 0.139E-16 -.518E+02


 POSITION                                       TOTAL-FORCE (eV/Angst)
 -----------------------------------------------------------------------------------
      4.22049      4.22049     16.28814        -0.000000     -0.000000      0.323388
      4.22049      4.22049     17.43496        -0.000000     -0.000000     -0.146151
      0.00000      6.33074      7.50000        -0.000000     -0.000009      0.149441
      2.11025      0.00000      7.50000         0.000009     -0.000000      0.149441
      0.00000      0.00000      9.61025        -0.000000     -0.000000      0.035937
      2.11025      6.33074      9.61025         0.001672     -0.001672      0.038491
      0.00000      6.33023     11.73368        -0.000000     -0.001053      0.029036
      2.11076      0.00000     11.73368         0.001053     -0.000000      0.029036
      0.00000      0.00000     13.83822        -0.000000     -0.000000      0.203064
      2.10905      6.33193     13.83447        -0.012232      0.012232      0.182269
      0.00000      2.11025      7.50000        -0.000000      0.000009      0.149441
      2.11025      4.22049      7.50000         0.000642     -0.000000      0.149532
      0.00000      4.22049      9.61025        -0.000000     -0.000000      0.045848
      2.11025      2.11025      9.61025         0.001672      0.001672      0.038491
      0.00000      2.11076     11.73368        -0.000000      0.001053      0.029036
      2.11344      4.22049     11.73659        -0.006878     -0.000000      0.036484
      0.00000      4.22049     13.83544        -0.000000     -0.000000      0.193220
      2.10905      2.10905     13.83447        -0.012232     -0.012232      0.182269
      4.22049      6.33074      7.50000        -0.000000     -0.000642      0.149532
      6.33074      0.00000      7.50000        -0.000009     -0.000000      0.149441
      4.22049      0.00000      9.61025        -0.000000     -0.000000      0.045848
      6.33074      6.33074      9.61025        -0.001672     -0.001672      0.038491
      4.22049      6.32754     11.73659        -0.000000      0.006878      0.036484
      6.33023      0.00000     11.73368        -0.001053     -0.000000      0.029036
      4.22049      0.00000     13.83544        -0.000000     -0.000000      0.193220
      6.33193      6.33193     13.83447         0.012232      0.012232      0.182269
      4.22049      2.11025      7.50000        -0.000000      0.000642      0.149532
      6.33074      4.22049      7.50000        -0.000642     -0.000000      0.149532
      4.22049      4.22049      9.61025        -0.000000     -0.000000      0.056340
      6.33074      2.11025      9.61025        -0.001672      0.001672      0.038491
      4.22049      2.11344     11.73659        -0.000000     -0.006878      0.036484
      6.32754      4.22049     11.73659         0.006878     -0.000000      0.036484
      4.22049      4.22049     13.87814        -0.000000     -0.000000      0.189890
      6.33193      2.10905     13.83447         0.012232     -0.012232      0.182269
      0.00000      6.33074      9.61025        -0.000000      0.002431      0.071534
      2.11025      0.00000      9.61025        -0.002431     -0.000000      0.071534
      0.00000      0.00000      7.50000        -0.000000     -0.000000     -0.561390
      2.11025      6.33074      7.50000        -0.000292      0.000292     -0.561156
      0.00000      6.33258     13.88587        -0.000000     -0.001831      0.047872
      2.10840      0.00000     13.88587         0.001831     -0.000000      0.047872
      0.00000      0.00000     11.72785        -0.000000     -0.000000      0.018014
      2.10979      6.33120     11.72890         0.002587     -0.002587      0.009916
      0.00000      2.11025      9.61025        -0.000000     -0.002431      0.071534
      2.11025      4.22049      9.61025         0.009737     -0.000000      0.080568
      0.00000      4.22049      7.50000        -0.000000     -0.000000     -0.561295
      2.11025      2.11025      7.50000        -0.000292     -0.000292     -0.561156
      0.00000      2.10840     13.88587        -0.000000      0.001831      0.047872
      2.10031      4.22049     13.88381        -0.014091     -0.000000      0.029891
      0.00000      4.22049     11.72684        -0.000000     -0.000000      0.011890
      2.10979      2.10979     11.72890         0.002587      0.002587      0.009916
      4.22049      6.33074      9.61025        -0.000000     -0.009737      0.080568
      6.33074      0.00000      9.61025         0.002431     -0.000000      0.071534
      4.22049      0.00000      7.50000        -0.000000     -0.000000     -0.561295
      6.33074      6.33074      7.50000         0.000292      0.000292     -0.561156
      4.22049      6.34068     13.88381        -0.000000      0.014091      0.029891
      6.33258      0.00000     13.88587        -0.001831     -0.000000      0.047872
      4.22049      0.00000     11.72684        -0.000000     -0.000000      0.011890
      6.33120      6.33120     11.72890        -0.002587     -0.002587      0.009916
      4.22049      2.11025      9.61025        -0.000000      0.009737      0.080568
      6.33074      4.22049      9.61025        -0.009737     -0.000000      0.080568
      4.22049      4.22049      7.50000        -0.000000     -0.000000     -0.561798
      6.33074      2.11025      7.50000         0.000292     -0.000292     -0.561156
      4.22049      2.10031     13.88381        -0.000000     -0.014091      0.029891
      6.34068      4.22049     13.88381         0.014091     -0.000000      0.029891
      4.22049      4.22049     11.73684        -0.000000     -0.000000      0.007873
      6.33120      2.10979     11.72890        -0.002587      0.002587      0.009916
 -----------------------------------------------------------------------------------
    total drift:                                0.000000      0.000000      0.000829


--------------------------------------------------------------------------------------------------------



  FREE ENERGIE OF THE ION-ELECTRON SYSTEM (eV)
  ---------------------------------------------------
  free  energy   TOTEN  =      -239.02125890 eV

  energy  without entropy=     -239.02125890  energy(sigma->0) =     -239.02125890



--------------------------------------------------------------------------------------------------------


    POTLOK:  cpu time      0.5027: real time      0.5031


--------------------------------------------------------------------------------------------------------


     LOOP+:  cpu time     62.1193: real time     62.4679
    4ORBIT:  cpu time      0.0000: real time      0.0000

 total amount of memory used by VASP MPI-rank0    78528. kBytes
=======================================================================

   base      :      30000. kBytes
   nonl-proj :      29343. kBytes
   fftplans  :       3857. kBytes
   grid      :       5885. kBytes
   one-center:        137. kBytes
   wavefun   :       9306. kBytes

  
  
 General timing and accounting informations for this job:
 ========================================================
  
                  Total CPU time used (sec):       81.485
                            User time (sec):       78.251
                          System time (sec):        3.235
                         Elapsed time (sec):       86.174
  
                   Maximum memory used (kb):      269720.
                   Average memory used (kb):          N/A
  
                          Minor page faults:        32830
                          Major page faults:           50
                 Voluntary context switches:         7483
