 vasp.6.3.0 20Jan22 (build Apr  1 2022 16:44:48) complex                         
 executed on        HPECrayEX_GCC date 2023.04.25  22:26:08
 running  512 mpi-ranks, with    1 threads/rank
 distrk:  each k-point on  512 cores,    1 groups
 distr:  one band on NCORE=   8 cores,   64 groups


--------------------------------------------------------------------------------------------------------


 INCAR:
   SYSTEM = MgO-rocksalt
   ISMEAR = 0
   SIGMA = 0.05
   EDIFF = 1E-7
   POTIM = 0.5
   ALGO = ALL
   ISTART = 0
   IBRION = 2
   NSW = 1000
   ISYM = 2
   ISIF = 2
   EDIFFG = -0.01
   DIPOL = 0.5 0.5 0.5
   IDIPOL = 3
   LDIPOL = .TRUE.
   GGA = RE
   IVDW = 13
   VDW_S8 = 1.7468
   VDW_A1 = 0.5363
   VDW_A2 = 3.0726
   ENCUT = 600
   PREC = Normal
   LASPH = .TRUE.
   LREAL = .FALSE.
   ISPIN = 1
   NELM = 200
   NELMIN = 8
   NCORE = 8
   KPAR = 1
   LWAVE = .FALSE.
   LCHARG = .FALSE.

 POTCAR:    PAW_PBE Mg_pv 13Apr2007               
 POTCAR:    PAW_PBE O 08Apr2002                   
 POTCAR:    PAW_PBE Mg_pv 13Apr2007               
   SHA256 =  f474ac0dd33840b9ae76c01d57fea79fdf77cdfbb07d5ade72c65f83c709b62b Mg_pv/POTCAR          
   COPYR  = (c) Copyright 13Apr2007 Georg Kresse                                                    
   COPYR  = This file is part of the software VASP. Any use, copying, and all other rights are regul
   COPYR  = If you do not have a valid VASP license, you may not use, copy or distribute this file. 
   VRHFIN =Mg: p6s2                                                                                 
   LEXCH  = PE                                                                                      
   EATOM  =  1056.7344 eV,   77.6678 Ry                                                             
                                                                                                    
   TITEL  = PAW_PBE Mg_pv 13Apr2007                                                                 
   LULTRA =        F    use ultrasoft PP ?                                                          
   IUNSCR =        1    unscreen: 0-lin 1-nonlin 2-no                                               
   RPACOR =    1.500    partial core radius                                                         
   POMASS =   24.305; ZVAL   =    8.000    mass and valenz                                          
   RCORE  =    2.000    outmost cutoff radius                                                       
   RWIGS  =    2.000; RWIGS  =    1.058    wigner-seitz radius (au A)                               
   ENMAX  =  403.929; ENMIN  =  302.947 eV                                                          
   RCLOC  =    1.506    cutoff for local pot                                                        
   LCOR   =        T    correct aug charges                                                         
   LPAW   =        T    paw PP                                                                      
   EAUG   =  758.780                                                                                
   DEXC   =    0.000                                                                                
   RMAX   =    2.045    core radius for proj-oper                                                   
   RAUG   =    1.300    factor for augmentation sphere                                              
   RDEP   =    2.025    radius for radial grids                                                     
   RDEPT  =    1.557    core radius for aug-charge                                                  
                                                                                                    
   Atomic configuration                                                                             
    5 entries                                                                                       
     n  l   j            E        occ.                                                              
     1  0  0.50     -1259.6230   2.0000                                                             
     2  0  0.50       -79.8442   2.0000                                                             
     2  1  1.50       -46.6121   6.0000                                                             
     3  0  0.50        -4.7055   2.0000                                                             
     3  2  1.50        -1.3606   0.0000                                                             
   Description                                                                                      
     l       E           TYP  RCUT    TYP  RCUT                                                     
     1    -46.6121073     23  1.600                                                                 
     1      2.7211652     23  1.600                                                                 
     0     -4.7054661     23  2.000                                                                 
     0     61.2262170     23  2.000                                                                 
     2     -1.3605826     23  2.000                                                                 
  local pseudopotential read in
  partial core-charges read in
  partial kinetic energy density read in
  atomic valenz-charges read in
  non local Contribution for L=           1  read in
    real space projection operators read in
  non local Contribution for L=           1  read in
    real space projection operators read in
  non local Contribution for L=           0  read in
    real space projection operators read in
  non local Contribution for L=           0  read in
    real space projection operators read in
  non local Contribution for L=           2  read in
    real space projection operators read in
    PAW grid and wavefunctions read in

   number of l-projection  operators is LMAX  =           5
   number of lm-projection operators is LMMAX =          13

 POTCAR:    PAW_PBE O 08Apr2002                   
   SHA256 =  818f92134a0a090dccd8ba1447fa70422a3b330e708bb4f08108d8ae51209ddf O/POTCAR              
   COPYR  = (c) Copyright 08Apr2002 Georg Kresse                                                    
   COPYR  = This file is part of the software VASP. Any use, copying, and all other rights are regul
   COPYR  = If you do not have a valid VASP license, you may not use, copy or distribute this file. 
   VRHFIN =O: s2p4                                                                                  
   LEXCH  = PE                                                                                      
   EATOM  =   432.3788 eV,   31.7789 Ry                                                             
                                                                                                    
   TITEL  = PAW_PBE O 08Apr2002                                                                     
   LULTRA =        F    use ultrasoft PP ?                                                          
   IUNSCR =        1    unscreen: 0-lin 1-nonlin 2-no                                               
   RPACOR =    1.200    partial core radius                                                         
   POMASS =   16.000; ZVAL   =    6.000    mass and valenz                                          
   RCORE  =    1.520    outmost cutoff radius                                                       
   RWIGS  =    1.550; RWIGS  =    0.820    wigner-seitz radius (au A)                               
   ENMAX  =  400.000; ENMIN  =  300.000 eV                                                          
   ICORE  =        2    local potential                                                             
   LCOR   =        T    correct aug charges                                                         
   LPAW   =        T    paw PP                                                                      
   EAUG   =  605.392                                                                                
   DEXC   =    0.000                                                                                
   RMAX   =    1.553    core radius for proj-oper                                                   
   RAUG   =    1.300    factor for augmentation sphere                                              
   RDEP   =    1.550    radius for radial grids                                                     
   RDEPT  =    1.329    core radius for aug-charge                                                  
                                                                                                    
   Atomic configuration                                                                             
    4 entries                                                                                       
     n  l   j            E        occ.                                                              
     1  0  0.50      -514.6923   2.0000                                                             
     2  0  0.50       -23.9615   2.0000                                                             
     2  1  0.50        -9.0305   4.0000                                                             
     3  2  1.50        -9.5241   0.0000                                                             
   Description                                                                                      
     l       E           TYP  RCUT    TYP  RCUT                                                     
     0    -23.9615318     23  1.200                                                                 
     0     -9.5240782     23  1.200                                                                 
     1     -9.0304911     23  1.520                                                                 
     1      8.1634956     23  1.520                                                                 
     2     -9.5240782      7  1.500                                                                 
  local pseudopotential read in
  partial core-charges read in
  partial kinetic energy density read in
  kinetic energy density of atom read in
  atomic valenz-charges read in
  non local Contribution for L=           0  read in
    real space projection operators read in
  non local Contribution for L=           0  read in
    real space projection operators read in
  non local Contribution for L=           1  read in
    real space projection operators read in
  non local Contribution for L=           1  read in
    real space projection operators read in
    PAW grid and wavefunctions read in

   number of l-projection  operators is LMAX  =           4
   number of lm-projection operators is LMMAX =           8

 -----------------------------------------------------------------------------
|                                                                             |
|               ----> ADVICE to this user running VASP <----                  |
|                                                                             |
|     You have a (more or less) 'large supercell' and for larger cells it     |
|     might be more efficient to use real-space projection operators.         |
|     Therefore, try LREAL= Auto in the INCAR file.                           |
|     Mind: For very accurate calculation, you might also keep the            |
|     reciprocal projection scheme (i.e. LREAL=.FALSE.).                      |
|                                                                             |
 -----------------------------------------------------------------------------

 -----------------------------------------------------------------------------
|                                                                             |
|               ----> ADVICE to this user running VASP <----                  |
|                                                                             |
|     You enforced a specific xc type in the INCAR file but a different       |
|     type was found in the POTCAR file.                                      |
|     I HOPE YOU KNOW WHAT YOU ARE DOING!                                     |
|                                                                             |
 -----------------------------------------------------------------------------

  PAW_PBE Mg_pv 13Apr2007               :
 energy of atom  1       EATOM=-1056.7344
 kinetic energy error for atom=    0.0221 (will be added to EATOM!!)
  PAW_PBE O 08Apr2002                   :
 energy of atom  2       EATOM= -432.3788
 kinetic energy error for atom=    0.0168 (will be added to EATOM!!)


 POSCAR: Mg  O
  positions in direct lattice
  No initial velocities read in
 -----------------------------------------------------------------------------
|                                                                             |
|           W    W    AA    RRRRR   N    N  II  N    N   GGGG   !!!           |
|           W    W   A  A   R    R  NN   N  II  NN   N  G    G  !!!           |
|           W    W  A    A  R    R  N N  N  II  N N  N  G       !!!           |
|           W WW W  AAAAAA  RRRRR   N  N N  II  N  N N  G  GGG   !            |
|           WW  WW  A    A  R   R   N   NN  II  N   NN  G    G                |
|           W    W  A    A  R    R  N    N  II  N    N   GGGG   !!!           |
|                                                                             |
|     Specifying the vdW parameters                                           |
|     VDW_S8 = 1.747                                                          |
|     VDW_A1 = 0.536                                                          |
|     VDW_A2 = 3.073                                                          |
|     in the INCAR file will overwrite the defaults for revpbe. Please        |
|     make sure that is what you intended.                                    |
|                                                                             |
 -----------------------------------------------------------------------------

 exchange correlation table for  LEXCH =       40
   RHO(1)=    0.500       N(1)  =     2000
   RHO(2)=  100.500       N(2)  =     4000



--------------------------------------------------------------------------------------------------------


 ion  position               nearest neighbor table
   1  0.000  0.750  0.352-  33 2.11  35 2.11  36 2.11  43 2.11  52 2.11
   2  0.250  0.000  0.352-  34 2.11  35 2.11  36 2.11  44 2.11  51 2.11
   3  0.000  0.000  0.451-  35 2.11  34 2.11  33 2.11  41 2.11  50 2.11  39 2.11
   4  0.250  0.750  0.451-  36 2.11  34 2.11  33 2.11  42 2.11  49 2.11  40 2.11
   5  0.000  0.750  0.549-  37 2.11  39 2.11  40 2.11  47 2.11  56 2.11  33 2.11
   6  0.250  0.000  0.549-  38 2.11  39 2.11  40 2.11  48 2.11  55 2.11  34 2.11
   7  0.000  0.000  0.648-  39 2.11  38 2.11  37 2.11  45 2.11  54 2.11
   8  0.250  0.750  0.648-  40 2.11  38 2.11  37 2.11  46 2.11  53 2.11
   9  0.000  0.250  0.352-  41 2.11  35 2.11  43 2.11  44 2.11  60 2.11
  10  0.250  0.500  0.352-  42 2.11  36 2.11  43 2.11  44 2.11  59 2.11
  11  0.000  0.500  0.451-  43 2.11  41 2.11  42 2.11  33 2.11  58 2.11  47 2.11
  12  0.250  0.250  0.451-  44 2.11  41 2.11  42 2.11  34 2.11  57 2.11  48 2.11
  13  0.000  0.250  0.549-  45 2.11  39 2.11  47 2.11  48 2.11  64 2.11  41 2.11
  14  0.250  0.500  0.549-  46 2.11  40 2.11  47 2.11  48 2.11  63 2.11  42 2.11
  15  0.000  0.500  0.648-  47 2.11  45 2.11  46 2.11  37 2.11  62 2.11
  16  0.250  0.250  0.648-  48 2.11  45 2.11  46 2.11  38 2.11  61 2.11
  17  0.500  0.750  0.352-  49 2.11  36 2.11  51 2.11  52 2.11  59 2.11
  18  0.750  0.000  0.352-  50 2.11  35 2.11  51 2.11  52 2.11  60 2.11
  19  0.500  0.000  0.451-  51 2.11  49 2.11  50 2.11  34 2.11  57 2.11  55 2.11
  20  0.750  0.750  0.451-  52 2.11  49 2.11  50 2.11  33 2.11  58 2.11  56 2.11
  21  0.500  0.750  0.549-  53 2.11  40 2.11  55 2.11  56 2.11  63 2.11  49 2.11
  22  0.750  0.000  0.549-  54 2.11  39 2.11  55 2.11  56 2.11  64 2.11  50 2.11
  23  0.500  0.000  0.648-  55 2.11  53 2.11  54 2.11  38 2.11  61 2.11
  24  0.750  0.750  0.648-  56 2.11  53 2.11  54 2.11  37 2.11  62 2.11
  25  0.500  0.250  0.352-  57 2.11  51 2.11  44 2.11  59 2.11  60 2.11
  26  0.750  0.500  0.352-  58 2.11  52 2.11  43 2.11  59 2.11  60 2.11
  27  0.500  0.500  0.451-  59 2.11  49 2.11  57 2.11  58 2.11  42 2.11  63 2.11
  28  0.750  0.250  0.451-  60 2.11  50 2.11  57 2.11  58 2.11  41 2.11  64 2.11
  29  0.500  0.250  0.549-  61 2.11  55 2.11  48 2.11  63 2.11  64 2.11  57 2.11
  30  0.750  0.500  0.549-  62 2.11  56 2.11  47 2.11  63 2.11  64 2.11  58 2.11
  31  0.500  0.500  0.648-  63 2.11  53 2.11  61 2.11  62 2.11  46 2.11
  32  0.750  0.250  0.648-  64 2.11  54 2.11  61 2.11  62 2.11  45 2.11
  33  0.000  0.750  0.451-   1 2.11   3 2.11   4 2.11  11 2.11  20 2.11   5 2.11
  34  0.250  0.000  0.451-   2 2.11   3 2.11   4 2.11  12 2.11  19 2.11   6 2.11
  35  0.000  0.000  0.352-   3 2.11   2 2.11   1 2.11   9 2.11  18 2.11
  36  0.250  0.750  0.352-   4 2.11   2 2.11   1 2.11  10 2.11  17 2.11
  37  0.000  0.750  0.648-   5 2.11   7 2.11   8 2.11  15 2.11  24 2.11
  38  0.250  0.000  0.648-   6 2.11   7 2.11   8 2.11  16 2.11  23 2.11
  39  0.000  0.000  0.549-   7 2.11   6 2.11   5 2.11  13 2.11  22 2.11   3 2.11
  40  0.250  0.750  0.549-   8 2.11   6 2.11   5 2.11  14 2.11  21 2.11   4 2.11
  41  0.000  0.250  0.451-   9 2.11   3 2.11  11 2.11  12 2.11  28 2.11  13 2.11
  42  0.250  0.500  0.451-  10 2.11   4 2.11  11 2.11  12 2.11  27 2.11  14 2.11
  43  0.000  0.500  0.352-  11 2.11   9 2.11  10 2.11   1 2.11  26 2.11
  44  0.250  0.250  0.352-  12 2.11   9 2.11  10 2.11   2 2.11  25 2.11
  45  0.000  0.250  0.648-  13 2.11   7 2.11  15 2.11  16 2.11  32 2.11
  46  0.250  0.500  0.648-  14 2.11   8 2.11  15 2.11  16 2.11  31 2.11
  47  0.000  0.500  0.549-  15 2.11  13 2.11  14 2.11   5 2.11  30 2.11  11 2.11
  48  0.250  0.250  0.549-  16 2.11  13 2.11  14 2.11   6 2.11  29 2.11  12 2.11
  49  0.500  0.750  0.451-  17 2.11   4 2.11  19 2.11  20 2.11  27 2.11  21 2.11
  50  0.750  0.000  0.451-  18 2.11   3 2.11  19 2.11  20 2.11  28 2.11  22 2.11
  51  0.500  0.000  0.352-  19 2.11  17 2.11  18 2.11   2 2.11  25 2.11
  52  0.750  0.750  0.352-  20 2.11  17 2.11  18 2.11   1 2.11  26 2.11
  53  0.500  0.750  0.648-  21 2.11   8 2.11  23 2.11  24 2.11  31 2.11
  54  0.750  0.000  0.648-  22 2.11   7 2.11  23 2.11  24 2.11  32 2.11
  55  0.500  0.000  0.549-  23 2.11  21 2.11  22 2.11   6 2.11  29 2.11  19 2.11
  56  0.750  0.750  0.549-  24 2.11  21 2.11  22 2.11   5 2.11  30 2.11  20 2.11
  57  0.500  0.250  0.451-  25 2.11  19 2.11  12 2.11  27 2.11  28 2.11  29 2.11
  58  0.750  0.500  0.451-  26 2.11  20 2.11  11 2.11  27 2.11  28 2.11  30 2.11
  59  0.500  0.500  0.352-  27 2.11  17 2.11  25 2.11  26 2.11  10 2.11
  60  0.750  0.250  0.352-  28 2.11  18 2.11  25 2.11  26 2.11   9 2.11
  61  0.500  0.250  0.648-  29 2.11  23 2.11  16 2.11  31 2.11  32 2.11
  62  0.750  0.500  0.648-  30 2.11  24 2.11  15 2.11  31 2.11  32 2.11
  63  0.500  0.500  0.549-  31 2.11  21 2.11  29 2.11  30 2.11  14 2.11  27 2.11
  64  0.750  0.250  0.549-  32 2.11  22 2.11  29 2.11  30 2.11  13 2.11  28 2.11

  LATTYP: Found a simple tetragonal cell.
 ALAT       =     8.4409846542
 C/A-ratio  =     2.5270438657
  
  Lattice vectors:
  
 A1 = (   8.4409846542,   0.0000000000,   0.0000000000)
 A2 = (   0.0000000000,   8.4409846542,   0.0000000000)
 A3 = (   0.0000000000,   0.0000000000,  21.3307384906)


Analysis of symmetry for initial positions (statically):
=====================================================================
 Subroutine PRICEL returns following result:
 
  LATTYP: Found a simple tetragonal cell.
 ALAT       =     2.9843387444
 C/A-ratio  =     7.1475594151
  
  Lattice vectors:
  
 A1 = (   2.1102461635,  -2.1102461635,   0.0000000000)
 A2 = (   2.1102461635,   2.1102461635,   0.0000000000)
 A3 = (   0.0000000000,   0.0000000000,  21.3307384906)
 
   8 primitive cells build up your supercell.
 

 Routine SETGRP: Setting up the symmetry group for a 
 simple tetragonal supercell.


 Subroutine GETGRP returns: Found 16 space group operations
 (whereof  8 operations were pure point group operations)
 out of a pool of 16 trial point group operations.


The static configuration has the point symmetry C_4v.
 The point group associated with its full space group is D_4h.


Analysis of symmetry for dynamics (positions and initial velocities):
=====================================================================
 Subroutine PRICEL returns following result:
 
  LATTYP: Found a simple tetragonal cell.
 ALAT       =     2.9843387444
 C/A-ratio  =     7.1475594151
  
  Lattice vectors:
  
 A1 = (   2.1102461635,  -2.1102461635,   0.0000000000)
 A2 = (   2.1102461635,   2.1102461635,   0.0000000000)
 A3 = (   0.0000000000,   0.0000000000,  21.3307384906)
 
   8 primitive cells build up your supercell.
 

 Routine SETGRP: Setting up the symmetry group for a 
 simple tetragonal supercell.


 Subroutine GETGRP returns: Found 16 space group operations
 (whereof  8 operations were pure point group operations)
 out of a pool of 16 trial point group operations.


The dynamic configuration has the point symmetry C_4v.
 The point group associated with its full space group is D_4h.


Analysis of constrained symmetry for selective dynamics:
=====================================================================
 Subroutine PRICEL returns following result:
 
  LATTYP: Found a simple tetragonal cell.
 ALAT       =     2.9843387444
 C/A-ratio  =     7.1475594151
  
  Lattice vectors:
  
 A1 = (   2.1102461635,  -2.1102461635,   0.0000000000)
 A2 = (   2.1102461635,   2.1102461635,   0.0000000000)
 A3 = (   0.0000000000,   0.0000000000,  21.3307384906)
 
   8 primitive cells build up your supercell.
 

 Routine SETGRP: Setting up the symmetry group for a 
 simple tetragonal supercell.


 Subroutine GETGRP returns: Found  8 space group operations
 (whereof  8 operations were pure point group operations)
 out of a pool of 16 trial point group operations.


The constrained configuration has the point symmetry C_4v.


 Subroutine INISYM returns: Found  8 space group operations
 (whereof  8 operations are pure point group operations),
 and found     8 'primitive' translations


----------------------------------------------------------------------------------------

                                     Primitive cell                                     

  volume of cell :     189.9775

  direct lattice vectors                    reciprocal lattice vectors
     2.110246164 -2.110246164  0.000000000     0.236939182 -0.236939182  0.000000000
     2.110246164  2.110246164  0.000000000     0.236939182  0.236939182 -0.000000000
     0.000000000  0.000000000 21.330738491    -0.000000000  0.000000000  0.046880702

  length of vectors
     2.984338744  2.984338744 21.330738491     0.335082605  0.335082605  0.046880702

  position of ions in fractional coordinates (direct lattice)
     0.500000000  0.500000000  0.351605267
     0.000000000  0.000000000  0.450535089
     0.500000000  0.500000000  0.549464911
     0.000000000  0.000000000  0.648394733
     0.500000000  0.500000000  0.450535089
     0.000000000  0.000000000  0.351605267
     0.500000000  0.500000000  0.648394733
     0.000000000  0.000000000  0.549464911

  ion indices of the primitive-cell ions
   primitive index   ion index
                 1           1
                 2           3
                 3           5
                 4           7
                 5          33
                 6          35
                 7          37
                 8          39

----------------------------------------------------------------------------------------



 KPOINTS: pymatgen v2020.8.13 with grid density = 

Automatic generation of k-mesh.
 Grid dimensions read from file:
 generate k-points for:    2    2    1

 Generating k-lattice:

  Cartesian coordinates                     Fractional coordinates (reciprocal lattice)
     0.059234796  0.000000000  0.000000000     0.500000000  0.000000000  0.000000000
     0.000000000  0.059234796  0.000000000     0.000000000  0.500000000  0.000000000
     0.000000000  0.000000000  0.046880702     0.000000000  0.000000000  1.000000000

  Length of vectors
     0.059234796  0.059234796  0.046880702

  Shift w.r.t. Gamma in fractional coordinates (k-lattice)
     0.000000000  0.000000000  0.000000000

 
 Subroutine IBZKPT returns following result:
 ===========================================
 
 Found      3 irreducible k-points:
 
 Following reciprocal coordinates:
            Coordinates               Weight
  0.000000  0.000000  0.000000      1.000000
  0.500000  0.000000  0.000000      2.000000
  0.500000  0.500000  0.000000      1.000000
 
 Following cartesian coordinates:
            Coordinates               Weight
  0.000000  0.000000  0.000000      1.000000
  0.059235  0.000000  0.000000      2.000000
  0.059235  0.059235  0.000000      1.000000
 


--------------------------------------------------------------------------------------------------------




 Dimension of arrays:
   k-points           NKPTS =      3   k-points in BZ     NKDIM =      3   number of bands    NBANDS=    320
   number of dos      NEDOS =    301   number of ions     NIONS =     64
   non local maximal  LDIM  =      5   non local SUM 2l+1 LMDIM =     13
   total plane-waves  NPLWV = 373248
   max r-space proj   IRMAX =      1   max aug-charges    IRDMAX=   5039
   dimension x,y,z NGX =    54 NGY =   54 NGZ =  128
   dimension x,y,z NGXF=   108 NGYF=  108 NGZF=  256
   support grid    NGXF=   108 NGYF=  108 NGZF=  256
   ions per type =              32  32
   NGX,Y,Z   is equivalent  to a cutoff of  10.64, 10.64,  9.98 a.u.
   NGXF,Y,Z  is equivalent  to a cutoff of  21.27, 21.27, 19.95 a.u.

 SYSTEM =  MgO-rocksalt                            
 POSCAR =  Mg  O                                   

 Startparameter for this run:
   NWRITE =      2    write-flag & timer
   PREC   = normal    normal or accurate (medium, high low for compatibility)
   ISTART =      0    job   : 0-new  1-cont  2-samecut
   ICHARG =      2    charge: 1-file 2-atom 10-const
   ISPIN  =      1    spin polarized calculation?
   LNONCOLLINEAR =      F non collinear calculations
   LSORBIT =      F    spin-orbit coupling
   INIWAV =      1    electr: 0-lowe 1-rand  2-diag
   LASPH  =      T    aspherical Exc in radial PAW
 Electronic Relaxation 1
   ENCUT  =  600.0 eV  44.10 Ry    6.64 a.u.  16.86 16.86 42.60*2*pi/ulx,y,z
   ENINI  =  600.0     initial cutoff
   ENAUG  =  758.8 eV  augmentation charge cutoff
   NELM   =    200;   NELMIN=  8; NELMDL= -5     # of ELM steps 
   EDIFF  = 0.1E-06   stopping-criterion for ELM
   LREAL  =      F    real-space projection
   NLSPLINE    = F    spline interpolate recip. space projectors
   LCOMPAT=      F    compatible to vasp.4.4
   GGA_COMPAT  = T    GGA compatible to vasp.4.4-vasp.4.6
   LMAXPAW     = -100 max onsite density
   LMAXMIX     =    2 max onsite mixed and CHGCAR
   VOSKOWN=      0    Vosko Wilk Nusair interpolation
   ROPT   =    0.00000   0.00000
 Ionic relaxation
   EDIFFG = -.1E-01   stopping-criterion for IOM
   NSW    =   1000    number of steps for IOM
   NBLOCK =      1;   KBLOCK =   1000    inner block; outer block 
   IBRION =      2    ionic relax: 0-MD 1-quasi-New 2-CG
   NFREE  =      1    steps in history (QN), initial steepest desc. (CG)
   ISIF   =      2    stress and relaxation
   IWAVPR =     11    prediction:  0-non 1-charg 2-wave 3-comb
   ISYM   =      2    0-nonsym 1-usesym 2-fastsym
   LCORR  =      T    Harris-Foulkes like correction to forces

   POTIM  = 0.5000    time-step for ionic-motion
   TEIN   =    0.0    initial temperature
   TEBEG  =    0.0;   TEEND  =   0.0 temperature during run
   SMASS  =  -3.00    Nose mass-parameter (am)
   estimated Nose-frequenzy (Omega)   =  0.10E-29 period in steps = 0.13E+47 mass=  -0.163E-26a.u.
   SCALEE = 1.0000    scale energy and forces
   NPACO  =    256;   APACO  = 10.0  distance and # of slots for P.C.
   PSTRESS=    0.0 pullay stress

  Mass of Ions in am
   POMASS =  24.30 16.00
  Ionic Valenz
   ZVAL   =   8.00  6.00
  Atomic Wigner-Seitz radii
   RWIGS  =  -1.00 -1.00
  virtual crystal weights 
   VCA    =   1.00  1.00
   NELECT =     448.0000    total number of electrons
   NUPDOWN=      -1.0000    fix difference up-down

 DOS related values:
   EMIN   =  10.00;   EMAX   =-10.00  energy-range for DOS
   EFERMI =   0.00
   ISMEAR =     0;   SIGMA  =   0.05  broadening in eV -4-tet -1-fermi 0-gaus

 Electronic relaxation 2 (details)
   IALGO  =     58    algorithm
   LDIAG  =      T    sub-space diagonalisation (order eigenvalues)
   LSUBROT=      F    optimize rotation matrix (better conditioning)
   TURBO    =      0    0=normal 1=particle mesh
   IRESTART =      0    0=no restart 2=restart with 2 vectors
   NREBOOT  =      0    no. of reboots
   NMIN     =      0    reboot dimension
   EREF     =   0.00    reference energy to select bands
   IMIX   =      4    mixing-type and parameters
     AMIX     =   0.40;   BMIX     =  1.00
     AMIX_MAG =   1.60;   BMIX_MAG =  1.00
     AMIN     =   0.10
     WC   =   100.;   INIMIX=   1;  MIXPRE=   1;  MAXMIX= -45

 Intra band minimization:
   WEIMIN = 0.0010     energy-eigenvalue tresh-hold
   EBREAK =  0.78E-10  absolut break condition
   DEPER  =   0.30     relativ break condition  

   TIME   =   0.40     timestep for ELM

  volume/ion in A,a.u.               =      23.75       160.25
  Fermi-wavevector in a.u.,A,eV,Ry     =   1.089524  2.058902 16.150966  1.187063
  Thomas-Fermi vector in A             =   2.225729

 Write flags
   LWAVE        =      F    write WAVECAR
   LDOWNSAMPLE  =      F    k-point downsampling of WAVECAR
   LCHARG       =      F    write CHGCAR
   LVTOT        =      F    write LOCPOT, total local potential
   LVHAR        =      F    write LOCPOT, Hartree potential only
   LELF         =      F    write electronic localiz. function (ELF)
   LORBIT       =      0    0 simple, 1 ext, 2 COOP (PROOUT), +10 PAW based schemes


 Dipole corrections
   LMONO  =      F    monopole corrections only (constant potential shift)
   LDIPOL =      T    correct potential (dipole corrections)
   IDIPOL =      3    1-x, 2-y, 3-z, 4-all directions 
   EPSILON=  1.0000000 bulk dielectric constant

 Exchange correlation treatment:
   GGA     =    RE    GGA type
   LEXCH   =    40    internal setting for exchange type
   LIBXC   =     F    Libxc                    
   VOSKOWN =     0    Vosko Wilk Nusair interpolation
   LHFCALC =     F    Hartree Fock is set to
   LHFONE  =     F    Hartree Fock one center treatment
   AEXX    =    0.0000 exact exchange contribution

 Linear response parameters
   LEPSILON=     F    determine dielectric tensor
   LRPA    =     F    only Hartree local field effects (RPA)
   LNABLA  =     F    use nabla operator in PAW spheres
   LVEL    =     F    velocity operator in full k-point grid
   CSHIFT  =0.1000    complex shift for real part using Kramers Kronig
   OMEGAMAX=  -1.0    maximum frequency
   DEG_THRESHOLD= 0.2000000E-02 threshold for treating states as degnerate
   RTIME   =   -0.100 relaxation time in fs
  (WPLASMAI=    0.000 imaginary part of plasma frequency in eV, 0.658/RTIME)
   DFIELD  = 0.0000000 0.0000000 0.0000000 field for delta impulse in time

  Optional k-point grid parameters
   LKPOINTS_OPT  =     F    use optional k-point grid
   KPOINTS_OPT_MODE=     1    mode for optional k-point grid

 Orbital magnetization related:
   ORBITALMAG=     F  switch on orbital magnetization
   LCHIMAG   =     F  perturbation theory with respect to B field
   DQ        =  0.001000  dq finite difference perturbation B field
   LLRAUG    =     F  two centre corrections for induced B field



--------------------------------------------------------------------------------------------------------


 conjugate gradient relaxation of ions
   using selective dynamics as specified on POSCAR
 charge density and potential will be updated during run
 non-spin polarized calculation
 Conjugate gradient for all bands (Freysoldt, et al. PRB 79, 241103 (2009))
 preconditioned conjugated gradient                                        
 perform sub-space diagonalisation
    before iterative eigenvector-optimisation
 modified Broyden-mixing scheme, WC =      100.0
 initial mixing is a Kerker type mixing with AMIX =  0.4000 and BMIX =      1.0000
 Hartree-type preconditioning will be used
 using additional bands           96
 reciprocal scheme for non local part
 use partial core corrections
 no Harris-corrections to forces 
 use gradient corrections 
 use of overlap-Matrix (Vanderbilt PP)
 Gauss-broadening in eV      SIGMA  =   0.05


--------------------------------------------------------------------------------------------------------


  energy-cutoff  :      600.00
  volume of cell :     1519.82
      direct lattice vectors                 reciprocal lattice vectors
     8.440984654  0.000000000  0.000000000     0.118469591  0.000000000  0.000000000
     0.000000000  8.440984654  0.000000000     0.000000000  0.118469591  0.000000000
     0.000000000  0.000000000 21.330738491     0.000000000  0.000000000  0.046880702

  length of vectors
     8.440984654  8.440984654 21.330738491     0.118469591  0.118469591  0.046880702



 k-points in units of 2pi/SCALE and weight: pymatgen v2020.8.13 with grid density = 
   0.00000000  0.00000000  0.00000000       0.250
   0.05923480  0.00000000  0.00000000       0.500
   0.05923480  0.05923480  0.00000000       0.250

 k-points in reciprocal lattice and weights: pymatgen v2020.8.13 with grid density = 
   0.00000000  0.00000000  0.00000000       0.250
   0.50000000  0.00000000  0.00000000       0.500
   0.50000000  0.50000000  0.00000000       0.250

 position of ions in fractional coordinates (direct lattice) 
   0.00000000  0.75000000  0.35160527
   0.25000000  0.00000000  0.35160527
   0.00000000  0.00000000  0.45053509
   0.25000000  0.75000000  0.45053509
   0.00000000  0.75000000  0.54946491
   0.25000000  0.00000000  0.54946491
   0.00000000  0.00000000  0.64839473
   0.25000000  0.75000000  0.64839473
   0.00000000  0.25000000  0.35160527
   0.25000000  0.50000000  0.35160527
   0.00000000  0.50000000  0.45053509
   0.25000000  0.25000000  0.45053509
   0.00000000  0.25000000  0.54946491
   0.25000000  0.50000000  0.54946491
   0.00000000  0.50000000  0.64839473
   0.25000000  0.25000000  0.64839473
   0.50000000  0.75000000  0.35160527
   0.75000000  0.00000000  0.35160527
   0.50000000  0.00000000  0.45053509
   0.75000000  0.75000000  0.45053509
   0.50000000  0.75000000  0.54946491
   0.75000000  0.00000000  0.54946491
   0.50000000  0.00000000  0.64839473
   0.75000000  0.75000000  0.64839473
   0.50000000  0.25000000  0.35160527
   0.75000000  0.50000000  0.35160527
   0.50000000  0.50000000  0.45053509
   0.75000000  0.25000000  0.45053509
   0.50000000  0.25000000  0.54946491
   0.75000000  0.50000000  0.54946491
   0.50000000  0.50000000  0.64839473
   0.75000000  0.25000000  0.64839473
   0.00000000  0.75000000  0.45053509
   0.25000000  0.00000000  0.45053509
   0.00000000  0.00000000  0.35160527
   0.25000000  0.75000000  0.35160527
   0.00000000  0.75000000  0.64839473
   0.25000000  0.00000000  0.64839473
   0.00000000  0.00000000  0.54946491
   0.25000000  0.75000000  0.54946491
   0.00000000  0.25000000  0.45053509
   0.25000000  0.50000000  0.45053509
   0.00000000  0.50000000  0.35160527
   0.25000000  0.25000000  0.35160527
   0.00000000  0.25000000  0.64839473
   0.25000000  0.50000000  0.64839473
   0.00000000  0.50000000  0.54946491
   0.25000000  0.25000000  0.54946491
   0.50000000  0.75000000  0.45053509
   0.75000000  0.00000000  0.45053509
   0.50000000  0.00000000  0.35160527
   0.75000000  0.75000000  0.35160527
   0.50000000  0.75000000  0.64839473
   0.75000000  0.00000000  0.64839473
   0.50000000  0.00000000  0.54946491
   0.75000000  0.75000000  0.54946491
   0.50000000  0.25000000  0.45053509
   0.75000000  0.50000000  0.45053509
   0.50000000  0.50000000  0.35160527
   0.75000000  0.25000000  0.35160527
   0.50000000  0.25000000  0.64839473
   0.75000000  0.50000000  0.64839473
   0.50000000  0.50000000  0.54946491
   0.75000000  0.25000000  0.54946491

 position of ions in cartesian coordinates  (Angst):
   0.00000000  6.33073849  7.50000000
   2.11024616  0.00000000  7.50000000
   0.00000000  0.00000000  9.61024616
   2.11024616  6.33073849  9.61024616
   0.00000000  6.33073849 11.72049233
   2.11024616  0.00000000 11.72049233
   0.00000000  0.00000000 13.83073849
   2.11024616  6.33073849 13.83073849
   0.00000000  2.11024616  7.50000000
   2.11024616  4.22049233  7.50000000
   0.00000000  4.22049233  9.61024616
   2.11024616  2.11024616  9.61024616
   0.00000000  2.11024616 11.72049233
   2.11024616  4.22049233 11.72049233
   0.00000000  4.22049233 13.83073849
   2.11024616  2.11024616 13.83073849
   4.22049233  6.33073849  7.50000000
   6.33073849  0.00000000  7.50000000
   4.22049233  0.00000000  9.61024616
   6.33073849  6.33073849  9.61024616
   4.22049233  6.33073849 11.72049233
   6.33073849  0.00000000 11.72049233
   4.22049233  0.00000000 13.83073849
   6.33073849  6.33073849 13.83073849
   4.22049233  2.11024616  7.50000000
   6.33073849  4.22049233  7.50000000
   4.22049233  4.22049233  9.61024616
   6.33073849  2.11024616  9.61024616
   4.22049233  2.11024616 11.72049233
   6.33073849  4.22049233 11.72049233
   4.22049233  4.22049233 13.83073849
   6.33073849  2.11024616 13.83073849
   0.00000000  6.33073849  9.61024616
   2.11024616  0.00000000  9.61024616
   0.00000000  0.00000000  7.50000000
   2.11024616  6.33073849  7.50000000
   0.00000000  6.33073849 13.83073849
   2.11024616  0.00000000 13.83073849
   0.00000000  0.00000000 11.72049233
   2.11024616  6.33073849 11.72049233
   0.00000000  2.11024616  9.61024616
   2.11024616  4.22049233  9.61024616
   0.00000000  4.22049233  7.50000000
   2.11024616  2.11024616  7.50000000
   0.00000000  2.11024616 13.83073849
   2.11024616  4.22049233 13.83073849
   0.00000000  4.22049233 11.72049233
   2.11024616  2.11024616 11.72049233
   4.22049233  6.33073849  9.61024616
   6.33073849  0.00000000  9.61024616
   4.22049233  0.00000000  7.50000000
   6.33073849  6.33073849  7.50000000
   4.22049233  6.33073849 13.83073849
   6.33073849  0.00000000 13.83073849
   4.22049233  0.00000000 11.72049233
   6.33073849  6.33073849 11.72049233
   4.22049233  2.11024616  9.61024616
   6.33073849  4.22049233  9.61024616
   4.22049233  4.22049233  7.50000000
   6.33073849  2.11024616  7.50000000
   4.22049233  2.11024616 13.83073849
   6.33073849  4.22049233 13.83073849
   4.22049233  4.22049233 11.72049233
   6.33073849  2.11024616 11.72049233



--------------------------------------------------------------------------------------------------------


 k-point   1 :   0.0000 0.0000 0.0000  plane waves:   50745
 k-point   2 :   0.5000 0.0000 0.0000  plane waves:   50798
 k-point   3 :   0.5000 0.5000 0.0000  plane waves:   50752

 maximum and minimum number of plane-waves per node :      6366     6310

 maximum number of plane-waves:     50798
 maximum index in each direction: 
   IXMAX=   16   IYMAX=   16   IZMAX=   42
   IXMIN=  -17   IYMIN=  -17   IZMIN=  -42


 parallel 3D FFT for wavefunctions:
    minimum data exchange during FFTs selected (reduces bandwidth)
 parallel 3D FFT for charge:
    minimum data exchange during FFTs selected (reduces bandwidth)


 total amount of memory used by VASP MPI-rank0    51205. kBytes
=======================================================================

   base      :      30000. kBytes
   nonl-proj :      10547. kBytes
   fftplans  :       2398. kBytes
   grid      :       3498. kBytes
   one-center:         64. kBytes
   wavefun   :       4698. kBytes

     INWAV:  cpu time      0.0000: real time      0.0000
 Broyden mixing: mesh for mixing (old mesh)
   NGX = 33   NGY = 33   NGZ = 85
  (NGX  =108   NGY  =108   NGZ  =256)
  gives a total of  92565 points

 initial charge density was supplied:
 charge density of overlapping atoms calculated
 number of electron     448.0000000 magnetization 
 keeping initial charge density in first step


--------------------------------------------------------------------------------------------------------


 Maximum index for augmentation-charges          331 (set IRDMAX)


--------------------------------------------------------------------------------------------------------


 First call to EWALD:  gamma=   0.154
 Maximum number of real-space cells 4x 4x 2
 Maximum number of reciprocal cells 2x 2x 5

    FEWALD:  cpu time      0.0031: real time      0.0031


--------------------------------------- Iteration      1(   1)  ---------------------------------------


    POTLOK:  cpu time      0.0653: real time      0.0663
    SETDIJ:  cpu time      0.1888: real time      0.1890
    TRIAL :  cpu time     18.8694: real time     18.9651
    CORREC:  cpu time      0.0012: real time      0.0012
    --------------------------------------------
      LOOP:  cpu time     19.1273: real time     19.2243

 eigenvalue-minimisations  :  2304
 total energy-change (2. order) : 0.4042524E+04  (-0.3021245E+05)
 number of electron     448.0000000 magnetization 
 augmentation part      448.0000000 magnetization 

 DIPCOR: dipole corrections for dipol
 direction  3 min pos     1,
 dipolmoment           0.000000      0.000000      0.000000 electrons x Angstroem
 Tr[quadrupol]     -5964.558405

 energy correction for charged system         0.000000 eV
 dipol+quadrupol energy correction           -0.000000 eV
 added-field ion interaction         -0.000000 eV  (added to PSCEN)


 Free energy of the ion-electron system (eV)
  ---------------------------------------------------
  alpha Z        PSCENC =       875.25928500
  Ewald energy   TEWEN  =    141423.51313752
  -Hartree energ DENC   =   -176920.26229712
  -exchange      EXHF   =         0.00000000
  -V(xc)+E(xc)   XCENC  =      1727.67400227
  PAW double counting   =     31885.32831381   -35670.53061943
  entropy T*S    EENTRO =        -0.02517383
  eigenvalues    EBANDS =     -6895.87393842
  atomic energy  EATOM  =     47617.44106709
  ---------------------------------------------------
  free energy    TOTEN  =      4042.52377689 eV

  energy without entropy =     4042.54895073  energy(sigma->0) =     4042.53636381


--------------------------------------------------------------------------------------------------------




--------------------------------------- Iteration      1(   2)  ---------------------------------------


    TRIAL :  cpu time      2.7978: real time      2.7986
    CORREC:  cpu time      0.0003: real time      0.0003
    --------------------------------------------
      LOOP:  cpu time      2.8131: real time      2.8142

 eigenvalue-minimisations  :  2304
 total energy-change (2. order) :-0.4154516E+04  (-0.4082568E+04)
 number of electron     448.0000000 magnetization 
 augmentation part      448.0000000 magnetization 

 DIPCOR: dipole corrections for dipol
 direction  3 min pos     1,
 dipolmoment           0.000000      0.000000      0.000000 electrons x Angstroem
 Tr[quadrupol]     -5964.558405

 energy correction for charged system         0.000000 eV
 dipol+quadrupol energy correction           -0.000000 eV
 added-field ion interaction         -0.000000 eV  (added to PSCEN)


 Free energy of the ion-electron system (eV)
  ---------------------------------------------------
  alpha Z        PSCENC =       875.25928500
  Ewald energy   TEWEN  =    141423.51313752
  -Hartree energ DENC   =   -176920.26229712
  -exchange      EXHF   =         0.00000000
  -V(xc)+E(xc)   XCENC  =      1727.67400227
  PAW double counting   =     31885.32831381   -35670.53061943
  entropy T*S    EENTRO =        -0.00000000
  eigenvalues    EBANDS =    -11050.41545812
  atomic energy  EATOM  =     47617.44106709
  ---------------------------------------------------
  free energy    TOTEN  =      -111.99256898 eV

  energy without entropy =     -111.99256898  energy(sigma->0) =     -111.99256898


--------------------------------------------------------------------------------------------------------




--------------------------------------- Iteration      1(   3)  ---------------------------------------


    TRIAL :  cpu time      2.9827: real time      2.9835
    CORREC:  cpu time      0.0003: real time      0.0003
    --------------------------------------------
      LOOP:  cpu time      2.9886: real time      2.9983

 eigenvalue-minimisations  :  2304
 total energy-change (2. order) :-0.2997257E+03  (-0.2977469E+03)
 number of electron     448.0000000 magnetization 
 augmentation part      448.0000000 magnetization 

 DIPCOR: dipole corrections for dipol
 direction  3 min pos     1,
 dipolmoment           0.000000      0.000000      0.000000 electrons x Angstroem
 Tr[quadrupol]     -5964.558405

 energy correction for charged system         0.000000 eV
 dipol+quadrupol energy correction           -0.000000 eV
 added-field ion interaction         -0.000000 eV  (added to PSCEN)


 Free energy of the ion-electron system (eV)
  ---------------------------------------------------
  alpha Z        PSCENC =       875.25928500
  Ewald energy   TEWEN  =    141423.51313752
  -Hartree energ DENC   =   -176920.26229712
  -exchange      EXHF   =         0.00000000
  -V(xc)+E(xc)   XCENC  =      1727.67400227
  PAW double counting   =     31885.32831381   -35670.53061943
  entropy T*S    EENTRO =        -0.00000000
  eigenvalues    EBANDS =    -11350.14112349
  atomic energy  EATOM  =     47617.44106709
  ---------------------------------------------------
  free energy    TOTEN  =      -411.71823435 eV

  energy without entropy =     -411.71823435  energy(sigma->0) =     -411.71823435


--------------------------------------------------------------------------------------------------------




--------------------------------------- Iteration      1(   4)  ---------------------------------------


    TRIAL :  cpu time      2.9481: real time      2.9490
    CORREC:  cpu time      0.0003: real time      0.0003
    --------------------------------------------
      LOOP:  cpu time      2.9624: real time      2.9634

 eigenvalue-minimisations  :  2304
 total energy-change (2. order) :-0.5575710E+01  (-0.5569767E+01)
 number of electron     448.0000000 magnetization 
 augmentation part      448.0000000 magnetization 

 DIPCOR: dipole corrections for dipol
 direction  3 min pos     1,
 dipolmoment           0.000000      0.000000      0.000000 electrons x Angstroem
 Tr[quadrupol]     -5964.558405

 energy correction for charged system         0.000000 eV
 dipol+quadrupol energy correction           -0.000000 eV
 added-field ion interaction         -0.000000 eV  (added to PSCEN)


 Free energy of the ion-electron system (eV)
  ---------------------------------------------------
  alpha Z        PSCENC =       875.25928500
  Ewald energy   TEWEN  =    141423.51313752
  -Hartree energ DENC   =   -176920.26229712
  -exchange      EXHF   =         0.00000000
  -V(xc)+E(xc)   XCENC  =      1727.67400227
  PAW double counting   =     31885.32831381   -35670.53061943
  entropy T*S    EENTRO =        -0.00000000
  eigenvalues    EBANDS =    -11355.71683324
  atomic energy  EATOM  =     47617.44106709
  ---------------------------------------------------
  free energy    TOTEN  =      -417.29394409 eV

  energy without entropy =     -417.29394409  energy(sigma->0) =     -417.29394409


--------------------------------------------------------------------------------------------------------




--------------------------------------- Iteration      1(   5)  ---------------------------------------


    TRIAL :  cpu time      3.2553: real time      3.2568
    CORREC:  cpu time      0.0002: real time      0.0002
    CHARGE:  cpu time      0.1680: real time      0.1685
    --------------------------------------------
      LOOP:  cpu time      3.4280: real time      3.4396

 eigenvalue-minimisations  :  2496
 total energy-change (2. order) :-0.7770660E-01  (-0.7770354E-01)
 number of electron     447.9999300 magnetization 
 augmentation part      159.0078888 magnetization 

 DIPCOR: dipole corrections for dipol
 direction  3 min pos     1,
 dipolmoment           0.000000      0.000000      0.000000 electrons x Angstroem
 Tr[quadrupol]     -5964.558405

 energy correction for charged system         0.000000 eV
 dipol+quadrupol energy correction           -0.000000 eV
 added-field ion interaction         -0.000000 eV  (added to PSCEN)


 Free energy of the ion-electron system (eV)
  ---------------------------------------------------
  alpha Z        PSCENC =       875.25928500
  Ewald energy   TEWEN  =    141423.51313752
  -Hartree energ DENC   =   -176920.26229712
  -exchange      EXHF   =         0.00000000
  -V(xc)+E(xc)   XCENC  =      1727.67400227
  PAW double counting   =     31885.32831381   -35670.53061943
  entropy T*S    EENTRO =        -0.00000000
  eigenvalues    EBANDS =    -11355.79453984
  atomic energy  EATOM  =     47617.44106709
  ---------------------------------------------------
  free energy    TOTEN  =      -417.37165070 eV

  energy without entropy =     -417.37165070  energy(sigma->0) =     -417.37165070


--------------------------------------------------------------------------------------------------------




--------------------------------------- Iteration      1(   6)  ---------------------------------------


    POTLOK:  cpu time      0.0426: real time      0.0426
    SETDIJ:  cpu time      0.1878: real time      0.1878
    TRIAL :  cpu time      0.7787: real time      0.7796
    CORREC:  cpu time      0.7580: real time      0.7583
    CHARGE:  cpu time      0.1441: real time      0.1441
    --------------------------------------------
      LOOP:  cpu time      1.9254: real time      1.9268

 eigenvalue-minimisations  :     0
 total energy-change (2. order) : 0.1726165E+03  (-0.9513172E+02)
 number of electron     447.9999227 magnetization 
 augmentation part      156.1625973 magnetization 

 DIPCOR: dipole corrections for dipol
 direction  3 min pos     1,
 dipolmoment           0.000000      0.000000     -0.013840 electrons x Angstroem
 Tr[quadrupol]     -6004.142578

 energy correction for charged system         0.000000 eV
 dipol+quadrupol energy correction           -0.000011 eV
 added-field ion interaction         -0.000000 eV  (added to PSCEN)


 Free energy of the ion-electron system (eV)
  ---------------------------------------------------
  alpha Z        PSCENC =       875.25928500
  Ewald energy   TEWEN  =    141423.51313752
  -Hartree energ DENC   =   -180936.55603896
  -exchange      EXHF   =         0.00000000
  -V(xc)+E(xc)   XCENC  =      1849.64937471
  PAW double counting   =     36313.27413999   -40057.71398679
  entropy T*S    EENTRO =        -0.00000000
  eigenvalues    EBANDS =     -7329.62212240
  atomic energy  EATOM  =     47617.44106709
  ---------------------------------------------------
  free energy    TOTEN  =      -244.75514385 eV

  energy without entropy =     -244.75514385  energy(sigma->0) =     -244.75514385


--------------------------------------------------------------------------------------------------------




--------------------------------------- Iteration      1(   7)  ---------------------------------------


    POTLOK:  cpu time      0.0415: real time      0.0415
    SETDIJ:  cpu time      0.1885: real time      0.1885
    TRIAL :  cpu time      0.6600: real time      0.6602
    CORREC:  cpu time      0.7444: real time      0.7446
    CHARGE:  cpu time      0.1440: real time      0.1440
    --------------------------------------------
      LOOP:  cpu time      1.7833: real time      1.7930

 eigenvalue-minimisations  :     0
 total energy-change (2. order) :-0.9541110E+02  (-0.6931542E+01)
 number of electron     447.9999218 magnetization 
 augmentation part      154.2386449 magnetization 

 DIPCOR: dipole corrections for dipol
 direction  3 min pos     1,
 dipolmoment           0.000000      0.000000     -0.004551 electrons x Angstroem
 Tr[quadrupol]     -6008.291125

 energy correction for charged system         0.000000 eV
 dipol+quadrupol energy correction           -0.000001 eV
 added-field ion interaction          0.000000 eV  (added to PSCEN)


 Free energy of the ion-electron system (eV)
  ---------------------------------------------------
  alpha Z        PSCENC =       875.25927549
  Ewald energy   TEWEN  =    141423.51313752
  -Hartree energ DENC   =   -179046.42373956
  -exchange      EXHF   =         0.00000000
  -V(xc)+E(xc)   XCENC  =      1784.16787910
  PAW double counting   =     35255.05496274   -39069.07214165
  entropy T*S    EENTRO =        -0.00000000
  eigenvalues    EBANDS =     -9180.10667979
  atomic energy  EATOM  =     47617.44106709
  ---------------------------------------------------
  free energy    TOTEN  =      -340.16623905 eV

  energy without entropy =     -340.16623905  energy(sigma->0) =     -340.16623905


--------------------------------------------------------------------------------------------------------




--------------------------------------- Iteration      1(   8)  ---------------------------------------


    POTLOK:  cpu time      0.0412: real time      0.0412
    SETDIJ:  cpu time      0.1880: real time      0.1880
    TRIAL :  cpu time      0.6592: real time      0.6595
    CORREC:  cpu time      0.7409: real time      0.7409
    CHARGE:  cpu time      0.1434: real time      0.1434
    --------------------------------------------
      LOOP:  cpu time      1.7871: real time      1.7876

 eigenvalue-minimisations  :     0
 total energy-change (2. order) :-0.6948577E+01  (-0.4247666E+01)
 number of electron     447.9999204 magnetization 
 augmentation part      154.3508064 magnetization 

 DIPCOR: dipole corrections for dipol
 direction  3 min pos     1,
 dipolmoment           0.000000      0.000000      0.001168 electrons x Angstroem
 Tr[quadrupol]     -6006.116415

 energy correction for charged system         0.000000 eV
 dipol+quadrupol energy correction           -0.000000 eV
 added-field ion interaction          0.000000 eV  (added to PSCEN)


 Free energy of the ion-electron system (eV)
  ---------------------------------------------------
  alpha Z        PSCENC =       875.25928486
  Ewald energy   TEWEN  =    141423.51313752
  -Hartree energ DENC   =   -178929.70244802
  -exchange      EXHF   =         0.00000000
  -V(xc)+E(xc)   XCENC  =      1774.19080897
  PAW double counting   =     35118.04711428   -38859.97356007
  entropy T*S    EENTRO =        -0.00000000
  eigenvalues    EBANDS =     -9365.89022107
  atomic energy  EATOM  =     47617.44106709
  ---------------------------------------------------
  free energy    TOTEN  =      -347.11481644 eV

  energy without entropy =     -347.11481644  energy(sigma->0) =     -347.11481644


--------------------------------------------------------------------------------------------------------




--------------------------------------- Iteration      1(   9)  ---------------------------------------


    POTLOK:  cpu time      0.0406: real time      0.0409
    SETDIJ:  cpu time      0.1883: real time      0.1883
    TRIAL :  cpu time      0.6577: real time      0.6577
    CORREC:  cpu time      0.7434: real time      0.7436
    CHARGE:  cpu time      0.1439: real time      0.1439
    --------------------------------------------
      LOOP:  cpu time      1.7888: real time      1.7895

 eigenvalue-minimisations  :     0
 total energy-change (2. order) :-0.4200130E+01  (-0.1848972E+01)
 number of electron     447.9999206 magnetization 
 augmentation part      154.4598418 magnetization 

 DIPCOR: dipole corrections for dipol
 direction  3 min pos     1,
 dipolmoment           0.000000      0.000000      0.001784 electrons x Angstroem
 Tr[quadrupol]     -6000.713226

 energy correction for charged system         0.000000 eV
 dipol+quadrupol energy correction           -0.000000 eV
 added-field ion interaction          0.000000 eV  (added to PSCEN)


 Free energy of the ion-electron system (eV)
  ---------------------------------------------------
  alpha Z        PSCENC =       875.25928463
  Ewald energy   TEWEN  =    141423.51313752
  -Hartree energ DENC   =   -178797.57976161
  -exchange      EXHF   =         0.00000000
  -V(xc)+E(xc)   XCENC  =      1773.69701996
  PAW double counting   =     35014.66593959   -38791.67636695
  entropy T*S    EENTRO =        -0.00000000
  eigenvalues    EBANDS =     -9466.63526671
  atomic energy  EATOM  =     47617.44106709
  ---------------------------------------------------
  free energy    TOTEN  =      -351.31494648 eV

  energy without entropy =     -351.31494648  energy(sigma->0) =     -351.31494648


--------------------------------------------------------------------------------------------------------




--------------------------------------- Iteration      1(  10)  ---------------------------------------


    POTLOK:  cpu time      0.0410: real time      0.0410
    SETDIJ:  cpu time      0.1885: real time      0.1886
    TRIAL :  cpu time      0.6576: real time      0.6580
    CORREC:  cpu time      0.7408: real time      0.7410
    CHARGE:  cpu time      0.1444: real time      0.1444
    --------------------------------------------
      LOOP:  cpu time      1.7782: real time      1.7875

 eigenvalue-minimisations  :     0
 total energy-change (2. order) :-0.1853112E+01  (-0.6617623E+00)
 number of electron     447.9999213 magnetization 
 augmentation part      154.4220238 magnetization 

 DIPCOR: dipole corrections for dipol
 direction  3 min pos     1,
 dipolmoment           0.000000      0.000000      0.000853 electrons x Angstroem
 Tr[quadrupol]     -5999.505945

 energy correction for charged system         0.000000 eV
 dipol+quadrupol energy correction           -0.000000 eV
 added-field ion interaction         -0.000000 eV  (added to PSCEN)


 Free energy of the ion-electron system (eV)
  ---------------------------------------------------
  alpha Z        PSCENC =       875.25928480
  Ewald energy   TEWEN  =    141423.51313752
  -Hartree energ DENC   =   -178654.54512800
  -exchange      EXHF   =         0.00000000
  -V(xc)+E(xc)   XCENC  =      1772.55165833
  PAW double counting   =     34900.80471018   -38690.31511698
  entropy T*S    EENTRO =        -0.00000000
  eigenvalues    EBANDS =     -9597.87767182
  atomic energy  EATOM  =     47617.44106709
  ---------------------------------------------------
  free energy    TOTEN  =      -353.16805889 eV

  energy without entropy =     -353.16805889  energy(sigma->0) =     -353.16805889


--------------------------------------------------------------------------------------------------------




--------------------------------------- Iteration      1(  11)  ---------------------------------------


    POTLOK:  cpu time      0.0397: real time      0.0397
    SETDIJ:  cpu time      0.1885: real time      0.1885
    TRIAL :  cpu time      0.6575: real time      0.6578
    CORREC:  cpu time      0.7393: real time      0.7395
    CHARGE:  cpu time      0.1439: real time      0.1442
    --------------------------------------------
      LOOP:  cpu time      1.7752: real time      1.7839

 eigenvalue-minimisations  :     0
 total energy-change (2. order) :-0.6622334E+00  (-0.2023538E+00)
 number of electron     447.9999216 magnetization 
 augmentation part      154.4834325 magnetization 

 DIPCOR: dipole corrections for dipol
 direction  3 min pos     1,
 dipolmoment           0.000000      0.000000      0.000950 electrons x Angstroem
 Tr[quadrupol]     -5999.576609

 energy correction for charged system         0.000000 eV
 dipol+quadrupol energy correction           -0.000000 eV
 added-field ion interaction          0.000000 eV  (added to PSCEN)


 Free energy of the ion-electron system (eV)
  ---------------------------------------------------
  alpha Z        PSCENC =       875.25928495
  Ewald energy   TEWEN  =    141423.51313752
  -Hartree energ DENC   =   -178587.10346555
  -exchange      EXHF   =         0.00000000
  -V(xc)+E(xc)   XCENC  =      1771.42871236
  PAW double counting   =     34835.51589768   -38616.67263155
  entropy T*S    EENTRO =        -0.00000000
  eigenvalues    EBANDS =     -9673.21229475
  atomic energy  EATOM  =     47617.44106709
  ---------------------------------------------------
  free energy    TOTEN  =      -353.83029224 eV

  energy without entropy =     -353.83029224  energy(sigma->0) =     -353.83029224


--------------------------------------------------------------------------------------------------------




--------------------------------------- Iteration      1(  12)  ---------------------------------------


    POTLOK:  cpu time      0.0404: real time      0.0404
    SETDIJ:  cpu time      0.1885: real time      0.1885
    TRIAL :  cpu time      0.6552: real time      0.6556
    CORREC:  cpu time      0.7394: real time      0.7394
    CHARGE:  cpu time      0.1436: real time      0.1438
    --------------------------------------------
      LOOP:  cpu time      1.7725: real time      1.7821

 eigenvalue-minimisations  :     0
 total energy-change (2. order) :-0.2023522E+00  (-0.6185123E-01)
 number of electron     447.9999217 magnetization 
 augmentation part      154.5671447 magnetization 

 DIPCOR: dipole corrections for dipol
 direction  3 min pos     1,
 dipolmoment           0.000000      0.000000      0.000870 electrons x Angstroem
 Tr[quadrupol]     -5999.757766

 energy correction for charged system         0.000000 eV
 dipol+quadrupol energy correction           -0.000000 eV
 added-field ion interaction          0.000000 eV  (added to PSCEN)


 Free energy of the ion-electron system (eV)
  ---------------------------------------------------
  alpha Z        PSCENC =       875.25928494
  Ewald energy   TEWEN  =    141423.51313752
  -Hartree energ DENC   =   -178585.53118594
  -exchange      EXHF   =         0.00000000
  -V(xc)+E(xc)   XCENC  =      1771.38602781
  PAW double counting   =     34819.44533278   -38598.25165740
  entropy T*S    EENTRO =        -0.00000000
  eigenvalues    EBANDS =     -9677.29465126
  atomic energy  EATOM  =     47617.44106709
  ---------------------------------------------------
  free energy    TOTEN  =      -354.03264445 eV

  energy without entropy =     -354.03264445  energy(sigma->0) =     -354.03264445


--------------------------------------------------------------------------------------------------------




--------------------------------------- Iteration      1(  13)  ---------------------------------------


    POTLOK:  cpu time      0.0423: real time      0.0423
    SETDIJ:  cpu time      0.1880: real time      0.1880
    TRIAL :  cpu time      0.6566: real time      0.6569
    CORREC:  cpu time      0.7382: real time      0.7382
    CHARGE:  cpu time      0.1436: real time      0.1436
    --------------------------------------------
      LOOP:  cpu time      1.7770: real time      1.7835

 eigenvalue-minimisations  :     0
 total energy-change (2. order) :-0.6186385E-01  (-0.2149888E-01)
 number of electron     447.9999217 magnetization 
 augmentation part      154.5913195 magnetization 

 DIPCOR: dipole corrections for dipol
 direction  3 min pos     1,
 dipolmoment           0.000000      0.000000      0.000508 electrons x Angstroem
 Tr[quadrupol]     -5999.865833

 energy correction for charged system         0.000000 eV
 dipol+quadrupol energy correction           -0.000000 eV
 added-field ion interaction         -0.000000 eV  (added to PSCEN)


 Free energy of the ion-electron system (eV)
  ---------------------------------------------------
  alpha Z        PSCENC =       875.25928495
  Ewald energy   TEWEN  =    141423.51313752
  -Hartree energ DENC   =   -178595.15917365
  -exchange      EXHF   =         0.00000000
  -V(xc)+E(xc)   XCENC  =      1771.55656731
  PAW double counting   =     34817.67048602   -38599.12221344
  entropy T*S    EENTRO =        -0.00000000
  eigenvalues    EBANDS =     -9665.25366411
  atomic energy  EATOM  =     47617.44106709
  ---------------------------------------------------
  free energy    TOTEN  =      -354.09450831 eV

  energy without entropy =     -354.09450831  energy(sigma->0) =     -354.09450831


--------------------------------------------------------------------------------------------------------




--------------------------------------- Iteration      1(  14)  ---------------------------------------


    POTLOK:  cpu time      0.0399: real time      0.0399
    SETDIJ:  cpu time      0.1882: real time      0.1884
    TRIAL :  cpu time      0.6551: real time      0.6551
    CORREC:  cpu time      0.7405: real time      0.7407
    CHARGE:  cpu time      0.1438: real time      0.1438
    --------------------------------------------
      LOOP:  cpu time      1.7722: real time      1.7822

 eigenvalue-minimisations  :     0
 total energy-change (2. order) :-0.2150775E-01  (-0.8971042E-02)
 number of electron     447.9999217 magnetization 
 augmentation part      154.5833060 magnetization 

 DIPCOR: dipole corrections for dipol
 direction  3 min pos     1,
 dipolmoment           0.000000      0.000000      0.000150 electrons x Angstroem
 Tr[quadrupol]     -6000.000799

 energy correction for charged system         0.000000 eV
 dipol+quadrupol energy correction           -0.000000 eV
 added-field ion interaction         -0.000000 eV  (added to PSCEN)


 Free energy of the ion-electron system (eV)
  ---------------------------------------------------
  alpha Z        PSCENC =       875.25928499
  Ewald energy   TEWEN  =    141423.51313752
  -Hartree energ DENC   =   -178598.77136266
  -exchange      EXHF   =         0.00000000
  -V(xc)+E(xc)   XCENC  =      1771.55607936
  PAW double counting   =     34817.90562269   -38600.47878663
  entropy T*S    EENTRO =        -0.00000000
  eigenvalues    EBANDS =     -9660.54105842
  atomic energy  EATOM  =     47617.44106709
  ---------------------------------------------------
  free energy    TOTEN  =      -354.11601605 eV

  energy without entropy =     -354.11601605  energy(sigma->0) =     -354.11601605


--------------------------------------------------------------------------------------------------------




--------------------------------------- Iteration      1(  15)  ---------------------------------------


    POTLOK:  cpu time      0.0410: real time      0.0410
    SETDIJ:  cpu time      0.1883: real time      0.1883
    TRIAL :  cpu time      0.6537: real time      0.6541
    CORREC:  cpu time      0.7384: real time      0.7386
    CHARGE:  cpu time      0.1440: real time      0.1440
    --------------------------------------------
      LOOP:  cpu time      1.7796: real time      1.7803

 eigenvalue-minimisations  :     0
 total energy-change (2. order) :-0.8974241E-02  (-0.3884470E-02)
 number of electron     447.9999217 magnetization 
 augmentation part      154.5763476 magnetization 

 DIPCOR: dipole corrections for dipol
 direction  3 min pos     1,
 dipolmoment           0.000000      0.000000     -0.000022 electrons x Angstroem
 Tr[quadrupol]     -6000.143849

 energy correction for charged system         0.000000 eV
 dipol+quadrupol energy correction           -0.000000 eV
 added-field ion interaction         -0.000000 eV  (added to PSCEN)


 Free energy of the ion-electron system (eV)
  ---------------------------------------------------
  alpha Z        PSCENC =       875.25928500
  Ewald energy   TEWEN  =    141423.51313752
  -Hartree energ DENC   =   -178604.15260055
  -exchange      EXHF   =         0.00000000
  -V(xc)+E(xc)   XCENC  =      1771.60287393
  PAW double counting   =     34822.05830896   -38604.05231646
  entropy T*S    EENTRO =        -0.00000000
  eigenvalues    EBANDS =     -9655.79474579
  atomic energy  EATOM  =     47617.44106709
  ---------------------------------------------------
  free energy    TOTEN  =      -354.12499029 eV

  energy without entropy =     -354.12499029  energy(sigma->0) =     -354.12499029


--------------------------------------------------------------------------------------------------------




--------------------------------------- Iteration      1(  16)  ---------------------------------------


    POTLOK:  cpu time      0.0408: real time      0.0408
    SETDIJ:  cpu time      0.1882: real time      0.1882
    TRIAL :  cpu time      0.6563: real time      0.6568
    CORREC:  cpu time      0.7411: real time      0.7413
    CHARGE:  cpu time      0.1437: real time      0.1437
    --------------------------------------------
      LOOP:  cpu time      1.7758: real time      1.7851

 eigenvalue-minimisations  :     0
 total energy-change (2. order) :-0.3883649E-02  (-0.1310438E-02)
 number of electron     447.9999217 magnetization 
 augmentation part      154.5745604 magnetization 

 DIPCOR: dipole corrections for dipol
 direction  3 min pos     1,
 dipolmoment           0.000000      0.000000     -0.000068 electrons x Angstroem
 Tr[quadrupol]     -6000.221953

 energy correction for charged system         0.000000 eV
 dipol+quadrupol energy correction           -0.000000 eV
 added-field ion interaction         -0.000000 eV  (added to PSCEN)


 Free energy of the ion-electron system (eV)
  ---------------------------------------------------
  alpha Z        PSCENC =       875.25928500
  Ewald energy   TEWEN  =    141423.51313752
  -Hartree energ DENC   =   -178610.67872791
  -exchange      EXHF   =         0.00000000
  -V(xc)+E(xc)   XCENC  =      1771.70833187
  PAW double counting   =     34827.83766139   -38609.38928964
  entropy T*S    EENTRO =        -0.00000000
  eigenvalues    EBANDS =     -9649.82033927
  atomic energy  EATOM  =     47617.44106709
  ---------------------------------------------------
  free energy    TOTEN  =      -354.12887394 eV

  energy without entropy =     -354.12887394  energy(sigma->0) =     -354.12887394


--------------------------------------------------------------------------------------------------------




--------------------------------------- Iteration      1(  17)  ---------------------------------------


    POTLOK:  cpu time      0.0423: real time      0.0423
    SETDIJ:  cpu time      0.1884: real time      0.1884
    TRIAL :  cpu time      0.6545: real time      0.6548
    CORREC:  cpu time      0.7385: real time      0.7386
    CHARGE:  cpu time      0.1433: real time      0.1438
    --------------------------------------------
      LOOP:  cpu time      1.7811: real time      1.7821

 eigenvalue-minimisations  :     0
 total energy-change (2. order) :-0.1308272E-02  (-0.4473484E-03)
 number of electron     447.9999217 magnetization 
 augmentation part      154.5742277 magnetization 

 DIPCOR: dipole corrections for dipol
 direction  3 min pos     1,
 dipolmoment           0.000000      0.000000     -0.000073 electrons x Angstroem
 Tr[quadrupol]     -6000.234876

 energy correction for charged system         0.000000 eV
 dipol+quadrupol energy correction           -0.000000 eV
 added-field ion interaction         -0.000000 eV  (added to PSCEN)


 Free energy of the ion-electron system (eV)
  ---------------------------------------------------
  alpha Z        PSCENC =       875.25928500
  Ewald energy   TEWEN  =    141423.51313752
  -Hartree energ DENC   =   -178612.67366997
  -exchange      EXHF   =         0.00000000
  -V(xc)+E(xc)   XCENC  =      1771.73195254
  PAW double counting   =     34830.68860304   -38612.36738152
  entropy T*S    EENTRO =        -0.00000000
  eigenvalues    EBANDS =     -9647.72317592
  atomic energy  EATOM  =     47617.44106709
  ---------------------------------------------------
  free energy    TOTEN  =      -354.13018222 eV

  energy without entropy =     -354.13018222  energy(sigma->0) =     -354.13018222


--------------------------------------------------------------------------------------------------------




--------------------------------------- Iteration      1(  18)  ---------------------------------------


    POTLOK:  cpu time      0.0409: real time      0.0409
    SETDIJ:  cpu time      0.1883: real time      0.1883
    TRIAL :  cpu time      0.6538: real time      0.6539
    CORREC:  cpu time      0.7368: real time      0.7371
    CHARGE:  cpu time      0.1437: real time      0.1437
    --------------------------------------------
      LOOP:  cpu time      1.7701: real time      1.7780

 eigenvalue-minimisations  :     0
 total energy-change (2. order) :-0.4460936E-03  (-0.1472512E-03)
 number of electron     447.9999217 magnetization 
 augmentation part      154.5745590 magnetization 

 DIPCOR: dipole corrections for dipol
 direction  3 min pos     1,
 dipolmoment           0.000000      0.000000     -0.000053 electrons x Angstroem
 Tr[quadrupol]     -6000.230468

 energy correction for charged system         0.000000 eV
 dipol+quadrupol energy correction           -0.000000 eV
 added-field ion interaction          0.000000 eV  (added to PSCEN)


 Free energy of the ion-electron system (eV)
  ---------------------------------------------------
  alpha Z        PSCENC =       875.25928500
  Ewald energy   TEWEN  =    141423.51313752
  -Hartree energ DENC   =   -178612.82037906
  -exchange      EXHF   =         0.00000000
  -V(xc)+E(xc)   XCENC  =      1771.73331124
  PAW double counting   =     34832.29722114   -38614.05185624
  entropy T*S    EENTRO =        -0.00000000
  eigenvalues    EBANDS =     -9647.50241499
  atomic energy  EATOM  =     47617.44106709
  ---------------------------------------------------
  free energy    TOTEN  =      -354.13062831 eV

  energy without entropy =     -354.13062831  energy(sigma->0) =     -354.13062831


--------------------------------------------------------------------------------------------------------




--------------------------------------- Iteration      1(  19)  ---------------------------------------


    POTLOK:  cpu time      0.0419: real time      0.0419
    SETDIJ:  cpu time      0.1879: real time      0.1881
    TRIAL :  cpu time      0.6558: real time      0.6558
    CORREC:  cpu time      0.7372: real time      0.7374
    CHARGE:  cpu time      0.1437: real time      0.1437
    --------------------------------------------
      LOOP:  cpu time      1.7803: real time      1.7811

 eigenvalue-minimisations  :     0
 total energy-change (2. order) :-0.1467302E-03  (-0.5346547E-04)
 number of electron     447.9999217 magnetization 
 augmentation part      154.5741751 magnetization 

 DIPCOR: dipole corrections for dipol
 direction  3 min pos     1,
 dipolmoment           0.000000      0.000000     -0.000022 electrons x Angstroem
 Tr[quadrupol]     -6000.218003

 energy correction for charged system         0.000000 eV
 dipol+quadrupol energy correction           -0.000000 eV
 added-field ion interaction         -0.000000 eV  (added to PSCEN)


 Free energy of the ion-electron system (eV)
  ---------------------------------------------------
  alpha Z        PSCENC =       875.25928500
  Ewald energy   TEWEN  =    141423.51313752
  -Hartree energ DENC   =   -178612.78818395
  -exchange      EXHF   =         0.00000000
  -V(xc)+E(xc)   XCENC  =      1771.74621681
  PAW double counting   =     34833.09041131   -38614.79314378
  entropy T*S    EENTRO =        -0.00000000
  eigenvalues    EBANDS =     -9647.59956505
  atomic energy  EATOM  =     47617.44106709
  ---------------------------------------------------
  free energy    TOTEN  =      -354.13077504 eV

  energy without entropy =     -354.13077504  energy(sigma->0) =     -354.13077504


--------------------------------------------------------------------------------------------------------




--------------------------------------- Iteration      1(  20)  ---------------------------------------


    POTLOK:  cpu time      0.0415: real time      0.0415
    SETDIJ:  cpu time      0.1884: real time      0.1884
    TRIAL :  cpu time      0.6571: real time      0.6575
    CORREC:  cpu time      0.7391: real time      0.7394
    CHARGE:  cpu time      0.1439: real time      0.1439
    --------------------------------------------
      LOOP:  cpu time      1.7761: real time      1.7847

 eigenvalue-minimisations  :     0
 total energy-change (2. order) :-0.5288866E-04  (-0.1741918E-04)
 number of electron     447.9999217 magnetization 
 augmentation part      154.5738492 magnetization 

 DIPCOR: dipole corrections for dipol
 direction  3 min pos     1,
 dipolmoment           0.000000      0.000000     -0.000001 electrons x Angstroem
 Tr[quadrupol]     -6000.205795

 energy correction for charged system         0.000000 eV
 dipol+quadrupol energy correction           -0.000000 eV
 added-field ion interaction          0.000000 eV  (added to PSCEN)


 Free energy of the ion-electron system (eV)
  ---------------------------------------------------
  alpha Z        PSCENC =       875.25928500
  Ewald energy   TEWEN  =    141423.51313752
  -Hartree energ DENC   =   -178612.20329913
  -exchange      EXHF   =         0.00000000
  -V(xc)+E(xc)   XCENC  =      1771.74286826
  PAW double counting   =     34832.66107257   -38614.33513940
  entropy T*S    EENTRO =        -0.00000000
  eigenvalues    EBANDS =     -9648.20981984
  atomic energy  EATOM  =     47617.44106709
  ---------------------------------------------------
  free energy    TOTEN  =      -354.13082793 eV

  energy without entropy =     -354.13082793  energy(sigma->0) =     -354.13082793


--------------------------------------------------------------------------------------------------------




--------------------------------------- Iteration      1(  21)  ---------------------------------------


    POTLOK:  cpu time      0.0404: real time      0.0404
    SETDIJ:  cpu time      0.1884: real time      0.1884
    TRIAL :  cpu time      0.6551: real time      0.6555
    CORREC:  cpu time      0.7383: real time      0.7385
    CHARGE:  cpu time      0.1437: real time      0.1438
    --------------------------------------------
      LOOP:  cpu time      1.7803: real time      1.7811

 eigenvalue-minimisations  :     0
 total energy-change (2. order) :-0.1712897E-04  (-0.5196157E-05)
 number of electron     447.9999217 magnetization 
 augmentation part      154.5740125 magnetization 

 DIPCOR: dipole corrections for dipol
 direction  3 min pos     1,
 dipolmoment           0.000000      0.000000      0.000004 electrons x Angstroem
 Tr[quadrupol]     -6000.201594

 energy correction for charged system         0.000000 eV
 dipol+quadrupol energy correction           -0.000000 eV
 added-field ion interaction          0.000000 eV  (added to PSCEN)


 Free energy of the ion-electron system (eV)
  ---------------------------------------------------
  alpha Z        PSCENC =       875.25928500
  Ewald energy   TEWEN  =    141423.51313752
  -Hartree energ DENC   =   -178611.75546838
  -exchange      EXHF   =         0.00000000
  -V(xc)+E(xc)   XCENC  =      1771.73502606
  PAW double counting   =     34832.02020222   -38613.69902638
  entropy T*S    EENTRO =        -0.00000000
  eigenvalues    EBANDS =     -9648.64506819
  atomic energy  EATOM  =     47617.44106709
  ---------------------------------------------------
  free energy    TOTEN  =      -354.13084506 eV

  energy without entropy =     -354.13084506  energy(sigma->0) =     -354.13084506


--------------------------------------------------------------------------------------------------------




[...]
    306       9.2195      0.00000
    307       9.2196      0.00000
    308       9.2205      0.00000
    309       9.3003      0.00000
    310       9.3006      0.00000
    311       9.3014      0.00000
    312       9.3016      0.00000
    313       9.5925      0.00000
    314       9.5925      0.00000
    315       9.5925      0.00000
    316       9.5925      0.00000
    317      10.2853      0.00000
    318      10.3073      0.00000
    319      10.3453      0.00000
    320      10.3575      0.00000


--------------------------------------------------------------------------------------------------------


 soft charge-density along one line, spin component           1
         0         1         2         3         4         5         6         7         8         9
 total charge-density along one line

 pseudopotential strength for first ion, spin component:           1
-51.676  -0.000  -0.000   7.196   0.000   0.000  -0.000   0.000
 -0.000 -51.732   0.000   0.000   7.226  -0.000  -0.034   0.084
 -0.000   0.000 -51.676   0.000  -0.000   7.196   0.000  -0.000
  7.196   0.000   0.000   4.272  -0.000   0.000  -0.000   0.000
  0.000   7.226  -0.000  -0.000   4.287   0.000  -0.007   0.014
  0.000  -0.000   7.196   0.000   0.000   4.272   0.000  -0.000
 -0.000  -0.034   0.000  -0.000  -0.007   0.000   2.997 -11.089
  0.000   0.084  -0.000   0.000   0.014  -0.000 -11.089  46.324
 -0.000   0.000   0.000   0.000  -0.000  -0.000   0.000  -0.000
  0.009   0.000   0.000  -0.011  -0.000  -0.000   0.000  -0.000
 -0.000   0.008   0.000   0.000  -0.025  -0.000   0.013  -0.025
  0.000  -0.000   0.009  -0.000   0.000  -0.011  -0.000   0.000
 -0.000   0.000  -0.000   0.000   0.000  -0.000  -0.000   0.000
 total augmentation occupancy for first ion, spin component:           1
  2.001   0.000   0.000  -0.008   0.000   0.000   0.000   0.000   0.000  -0.008   0.000  -0.000   0.000
  0.000   2.002  -0.000  -0.000  -0.002   0.000   0.001   0.005   0.000  -0.000  -0.014   0.000  -0.000
  0.000  -0.000   2.001   0.000   0.000  -0.008   0.000   0.000   0.000   0.000   0.000  -0.008  -0.000
 -0.008  -0.000   0.000   0.076  -0.000   0.000   0.000   0.000  -0.000   0.001  -0.000   0.000  -0.000
  0.000  -0.002   0.000  -0.000   0.047   0.000   0.040   0.001   0.000   0.000   0.026   0.000   0.000
  0.000   0.000  -0.008   0.000   0.000   0.076   0.000   0.000   0.000  -0.000   0.000   0.001   0.000
  0.000   0.001   0.000   0.000   0.040   0.000   0.816   0.014   0.000   0.000  -0.040   0.000  -0.000
  0.000   0.005   0.000   0.000   0.001   0.000   0.014   0.000   0.000  -0.000  -0.001  -0.000  -0.000
  0.000   0.000   0.000  -0.000   0.000   0.000   0.000   0.000   0.013  -0.000   0.000  -0.000  -0.000
 -0.008  -0.000   0.000   0.001   0.000  -0.000   0.000  -0.000  -0.000   0.011  -0.000  -0.000  -0.000
  0.000  -0.014   0.000  -0.000   0.026   0.000  -0.040  -0.001   0.000  -0.000   0.031  -0.000  -0.000
 -0.000   0.000  -0.008   0.000   0.000   0.001   0.000  -0.000  -0.000  -0.000  -0.000   0.011  -0.000
  0.000  -0.000  -0.000  -0.000   0.000   0.000  -0.000  -0.000  -0.000  -0.000  -0.000  -0.000   0.052


------------------------ aborting loop because EDIFF is reached ----------------------------------------


    FORLOC:  cpu time      0.0018: real time      0.0018
    FORNL :  cpu time      0.3081: real time      0.3081
    STRESS:  cpu time      0.8360: real time      0.8364
    FORCOR:  cpu time      0.0347: real time      0.0347
    OFIELD:  cpu time      0.0000: real time      0.0000
    FORVDW:  cpu time      7.1855: real time      7.1859

  FORCE on cell =-STRESS in cart. coord.  units (eV):
  Direction    XX          YY          ZZ          XY          YZ          ZX
  --------------------------------------------------------------------------------------
  Alpha Z   875.25928   875.25928   875.25928
  Ewald  161076.41202161076.41202************     0.00000    -0.00000    -0.00000
  Hartree171150.57628171150.57628************    -0.00000    -0.00000    -0.00000
  E(xc)   -2465.27029 -2465.27029 -2473.58543     0.00000     0.00000     0.00000
  Local  ************************342492.02793    -0.00000     0.00000     0.00000
  n-local -2794.68510 -2795.50232 -2816.18422    -0.00000    -0.00000     0.00000
  augment  1046.60675  1046.60675  1036.89356     0.00000     0.00000     0.00000
  Kinetic  7307.91833  7310.52619  7349.41114     0.00000    -0.00000     0.00000
  Fock        0.00000     0.00000     0.00000     0.00000     0.00000     0.00000
  vdW       -21.48085   -21.48088   -16.14215    -0.00000    -0.00000     0.00000
  -------------------------------------------------------------------------------------
  Total     -26.44134   -26.44134    -1.88940     0.00000     0.00000    -0.00000
  in kB     -27.87417   -27.87417    -1.99179     0.00000     0.00000    -0.00000
  external pressure =      -19.25 kB  Pullay stress =        0.00 kB


 VOLUME and BASIS-vectors are now :
 -----------------------------------------------------------------------------
  energy-cutoff  :      600.00
  volume of cell :     1519.82
      direct lattice vectors                 reciprocal lattice vectors
     8.440984654  0.000000000  0.000000000     0.118469591  0.000000000  0.000000000
     0.000000000  8.440984654  0.000000000     0.000000000  0.118469591  0.000000000
     0.000000000  0.000000000 21.330738491     0.000000000  0.000000000  0.046880702

  length of vectors
     8.440984654  8.440984654 21.330738491     0.118469591  0.118469591  0.046880702


 FORCES acting on ions:
    Electron-Ion                     Ewald-Force                    Non-Local-Force
 -----------------------------------------------------------------------------------------------
   -.475E-13 0.194E-11 0.207E+04   0.409E-13 -.129E-13 -.206E+04   0.000E+00 -.310E-24 -.716E+01
   0.288E-12 0.377E-12 0.207E+04   0.428E-13 0.719E-13 -.206E+04   0.181E-24 -.775E-25 -.716E+01
   -.594E-13 0.000E+00 0.683E+03   -.150E-10 0.150E-10 -.683E+03   -.246E-24 0.310E-24 0.527E+00
   0.361E-12 0.135E-11 0.683E+03   0.151E-10 -.151E-10 -.683E+03   0.207E-24 0.414E-24 0.527E+00
   -.516E-13 0.112E-11 -.690E+03   -.149E-10 -.149E-10 0.691E+03   -.207E-24 0.827E-24 -.225E+00
   0.383E-12 -.269E-13 -.690E+03   0.150E-10 0.149E-10 0.691E+03   -.672E-24 0.124E-23 -.225E+00
   -.462E-13 0.135E-12 -.205E+04   0.817E-13 -.711E-14 0.204E+04   0.310E-24 -.827E-24 0.609E+01
   0.321E-12 0.175E-11 -.205E+04   0.124E-12 -.923E-13 0.204E+04   -.562E-24 0.103E-23 0.609E+01
   -.559E-13 0.889E-12 0.207E+04   0.147E-11 -.151E-10 -.206E+04   -.103E-24 -.517E-25 -.716E+01
   0.284E-12 0.136E-11 0.207E+04   -.144E-11 0.150E-10 -.206E+04   0.258E-25 0.517E-25 -.716E+01
   -.485E-13 0.102E-11 0.683E+03   -.150E-10 0.149E-10 -.683E+03   0.207E-24 -.620E-24 0.527E+00
   0.379E-12 0.512E-12 0.683E+03   0.151E-10 -.149E-10 -.683E+03   0.724E-24 0.155E-24 0.527E+00
   -.633E-13 0.148E-12 -.690E+03   -.163E-10 -.528E-13 0.691E+03   -.207E-23 -.620E-24 -.225E+00
   0.384E-12 0.875E-12 -.690E+03   0.163E-10 0.178E-14 0.691E+03   -.827E-24 -.620E-24 -.225E+00
   -.494E-13 0.875E-12 -.205E+04   0.114E-12 0.000E+00 0.204E+04   -.124E-23 0.103E-23 0.609E+01
   0.342E-12 0.593E-12 -.205E+04   0.107E-12 -.141E-13 0.204E+04   -.103E-24 -.186E-23 0.609E+01
   0.905E-12 0.329E-11 0.207E+04   -.165E-10 0.186E-13 -.206E+04   -.207E-24 0.000E+00 -.716E+01
   0.123E-11 0.418E-12 0.207E+04   0.165E-10 0.657E-13 -.206E+04   -.155E-24 0.103E-24 -.716E+01
   0.840E-12 -.135E-13 0.683E+03   -.149E-10 0.150E-10 -.683E+03   0.207E-24 -.607E-24 0.527E+00
   0.120E-11 0.175E-11 0.683E+03   0.149E-10 -.151E-10 -.683E+03   0.414E-24 0.103E-24 0.527E+00
   0.841E-12 0.781E-12 -.690E+03   0.144E-11 -.149E-10 0.691E+03   -.248E-23 0.310E-24 -.225E+00
   0.118E-11 0.404E-13 -.690E+03   -.148E-11 0.150E-10 0.691E+03   -.124E-23 0.000E+00 -.225E+00
   0.941E-12 0.135E-12 -.205E+04   0.888E-13 0.249E-13 0.204E+04   0.114E-23 0.101E-23 0.609E+01
   0.125E-11 0.183E-11 -.205E+04   -.320E-13 -.857E-13 0.204E+04   -.155E-24 -.620E-24 0.609E+01
   0.915E-12 -.579E-12 0.207E+04   -.151E-10 -.151E-10 -.206E+04   -.103E-24 -.129E-24 -.716E+01
   0.124E-11 0.889E-12 0.207E+04   0.151E-10 0.150E-10 -.206E+04   -.775E-25 0.646E-25 -.716E+01
   0.834E-12 0.113E-11 0.683E+03   -.148E-10 0.149E-10 -.683E+03   -.336E-24 0.000E+00 0.527E+00
   0.120E-11 0.646E-12 0.683E+03   0.149E-10 -.149E-10 -.683E+03   0.207E-24 0.336E-24 0.527E+00
   0.859E-12 0.902E-12 -.690E+03   -.853E-13 0.422E-15 0.691E+03   -.129E-23 -.827E-24 -.225E+00
   0.119E-11 0.237E-11 -.690E+03   -.567E-13 0.284E-13 0.691E+03   -.414E-24 -.145E-23 -.225E+00
   0.952E-12 0.102E-11 -.205E+04   0.533E-13 0.284E-13 0.204E+04   0.414E-24 -.827E-24 0.609E+01
   0.124E-11 0.552E-12 -.205E+04   0.358E-14 -.345E-14 0.204E+04   -.827E-24 0.310E-24 0.609E+01
   -.623E-13 0.687E-12 0.512E+03   0.488E-13 0.466E-13 -.511E+03   -.150E-23 -.155E-24 -.104E+00
   0.133E-12 -.202E-13 0.512E+03   0.638E-13 0.000E+00 -.511E+03   -.414E-24 -.827E-24 -.104E+00
   -.386E-13 0.202E-12 0.155E+04   0.855E-11 -.846E-11 -.156E+04   0.207E-24 0.207E-24 0.341E+01
   0.479E-13 0.620E-12 0.155E+04   -.848E-11 0.849E-11 -.156E+04   -.103E-24 -.517E-25 0.341E+01
   -.587E-13 -.330E-12 -.156E+04   -.213E-13 0.378E-13 0.156E+04   -.331E-23 0.238E-23 -.494E+01
   0.666E-13 -.438E-12 -.156E+04   -.176E-14 0.195E-13 0.156E+04   0.227E-23 0.269E-23 -.494E+01
   -.946E-13 -.269E-13 -.512E+03   0.639E-13 0.213E-13 0.512E+03   -.101E-22 0.331E-23 0.263E+00
   0.124E-12 -.566E-12 -.512E+03   -.282E-13 0.138E-13 0.512E+03   0.662E-23 -.118E-22 0.263E+00
   -.662E-13 0.424E-12 0.512E+03   -.774E-12 0.843E-11 -.511E+03   -.145E-23 -.207E-24 -.104E+00
   0.122E-12 0.646E-12 0.512E+03   0.817E-12 -.842E-11 -.511E+03   -.124E-23 0.000E+00 -.104E+00
   -.337E-13 0.727E-12 0.155E+04   0.929E-11 0.764E-13 -.156E+04   -.323E-26 0.000E+00 0.341E+01
   0.472E-13 0.579E-12 0.155E+04   -.928E-11 -.205E-13 -.156E+04   0.931E-24 0.517E-25 0.341E+01
   -.695E-13 -.384E-12 -.156E+04   0.711E-14 -.238E-13 0.156E+04   -.141E-23 0.414E-24 -.494E+01
   0.577E-13 0.128E-12 -.156E+04   -.101E-12 -.533E-14 0.156E+04   -.290E-23 0.000E+00 -.494E+01
   -.714E-13 0.673E-12 -.512E+03   0.355E-13 0.711E-14 0.512E+03   0.331E-23 0.414E-23 0.263E+00
   0.148E-12 -.404E-13 -.512E+03   -.838E-13 -.709E-14 0.512E+03   0.331E-23 0.207E-24 0.263E+00
   0.327E-12 0.271E-11 0.512E+03   0.929E-11 0.155E-13 -.511E+03   -.248E-23 0.258E-24 -.104E+00
   0.498E-12 -.673E-14 0.512E+03   -.930E-11 -.426E-13 -.511E+03   0.414E-24 -.724E-24 -.104E+00
   0.389E-12 0.215E-12 0.155E+04   -.880E-12 -.849E-11 -.156E+04   -.827E-24 0.512E-24 0.341E+01
   0.515E-12 -.175E-11 0.155E+04   0.851E-12 0.846E-11 -.156E+04   -.223E-24 0.155E-24 0.341E+01
   0.381E-12 -.902E-12 -.156E+04   -.888E-13 0.148E-13 0.156E+04   0.207E-24 -.414E-24 -.494E+01
   0.454E-12 -.431E-12 -.156E+04   -.147E-12 0.000E+00 0.156E+04   -.186E-23 0.827E-24 -.494E+01
   0.345E-12 0.000E+00 -.512E+03   -.995E-13 -.213E-13 0.512E+03   -.331E-23 -.165E-23 0.263E+00
   0.474E-12 0.462E-11 -.512E+03   -.177E-12 -.617E-14 0.512E+03   -.496E-23 0.165E-23 0.263E+00
   0.328E-12 -.277E-11 0.512E+03   0.843E-11 0.841E-11 -.511E+03   -.827E-24 -.258E-24 -.104E+00
   0.512E-12 0.136E-11 0.512E+03   -.851E-11 -.847E-11 -.511E+03   0.827E-24 -.297E-24 -.104E+00
   0.391E-12 0.613E-12 0.155E+04   -.622E-13 0.333E-13 -.156E+04   0.000E+00 -.452E-25 0.341E+01
   0.510E-12 0.135E-11 0.155E+04   -.800E-13 -.630E-13 -.156E+04   -.310E-24 0.103E-24 0.341E+01
   0.395E-12 0.128E-12 -.156E+04   -.156E-12 -.566E-13 0.156E+04   -.620E-24 0.000E+00 -.494E+01
   0.458E-12 -.133E-11 -.156E+04   -.107E-12 -.284E-13 0.156E+04   -.178E-23 0.103E-23 -.494E+01
   0.312E-12 -.498E-12 -.512E+03   -.149E-12 0.000E+00 0.512E+03   0.331E-23 -.248E-23 0.263E+00
   0.453E-12 0.325E-11 -.512E+03   -.114E-12 -.568E-13 0.512E+03   -.108E-22 0.414E-23 0.263E+00
 -----------------------------------------------------------------------------------------------
   0.267E-10 0.382E-10 0.171E+02   -.147E-12 -.188E-12 -.523E-11   -.383E-22 0.102E-23 -.171E+02


 POSITION                                       TOTAL-FORCE (eV/Angst)
 -----------------------------------------------------------------------------------
      0.00000      6.33074      7.50000         0.000000     -0.000000      0.339730
      2.11025      0.00000      7.50000         0.000000      0.000000      0.339730
      0.00000      0.00000      9.61025        -0.000000     -0.000000      0.076850
      2.11025      6.33074      9.61025        -0.000000     -0.000000      0.076850
     -0.00000      6.33074     11.73593        -0.000000     -0.000000      0.000221
      2.11025      0.00000     11.73593         0.000000     -0.000000      0.000221
      0.00000     -0.00000     13.84103         0.000000     -0.000000      0.000106
      2.11025      6.33074     13.84103         0.000000      0.000000      0.000106
      0.00000      2.11025      7.50000        -0.000000      0.000000      0.339730
      2.11025      4.22049      7.50000        -0.000000      0.000000      0.339730
      0.00000      4.22049      9.61025        -0.000000     -0.000000      0.076850
      2.11025      2.11025      9.61025        -0.000000      0.000000      0.076850
      0.00000      2.11025     11.73593         0.000000     -0.000000      0.000221
      2.11025      4.22049     11.73593         0.000000     -0.000000      0.000221
      0.00000      4.22049     13.84103         0.000000     -0.000000      0.000106
      2.11025      2.11025     13.84103         0.000000     -0.000000      0.000106
      4.22049      6.33074      7.50000         0.000000      0.000000      0.339730
      6.33074      0.00000      7.50000        -0.000000     -0.000000      0.339730
      4.22049      0.00000      9.61025        -0.000000      0.000000      0.076850
      6.33074      6.33074      9.61025         0.000000     -0.000000      0.076850
      4.22049      6.33074     11.73593        -0.000000     -0.000000      0.000221
      6.33074     -0.00000     11.73593        -0.000000      0.000000      0.000221
      4.22049      0.00000     13.84103         0.000000     -0.000000      0.000106
      6.33074      6.33074     13.84103         0.000000     -0.000000      0.000106
      4.22049      2.11025      7.50000         0.000000      0.000000      0.339730
      6.33074      4.22049      7.50000         0.000000     -0.000000      0.339730
      4.22049      4.22049      9.61025        -0.000000      0.000000      0.076850
      6.33074      2.11025      9.61025         0.000000     -0.000000      0.076850
      4.22049      2.11025     11.73593        -0.000000     -0.000000      0.000221
      6.33074      4.22049     11.73593        -0.000000     -0.000000      0.000221
      4.22049      4.22049     13.84103         0.000000     -0.000000      0.000106
      6.33074      2.11025     13.84103         0.000000     -0.000000      0.000106
      0.00000      6.33074      9.61025        -0.000000      0.000000      0.084903
      2.11025      0.00000      9.61025        -0.000000     -0.000000      0.084903
      0.00000      0.00000      7.50000         0.000000     -0.000000     -0.501166
      2.11025      6.33074      7.50000         0.000000      0.000000     -0.501166
     -0.00000      6.33074     13.88679        -0.000000     -0.000000     -0.001979
      2.11025     -0.00000     13.88679        -0.000000     -0.000000     -0.001979
     -0.00000     -0.00000     11.72984        -0.000000      0.000000      0.001336
      2.11025      6.33074     11.72984         0.000000     -0.000000      0.001336
      0.00000      2.11025      9.61025        -0.000000     -0.000000      0.084903
      2.11025      4.22049      9.61025        -0.000000     -0.000000      0.084903
      0.00000      4.22049      7.50000        -0.000000      0.000000     -0.501166
      2.11025      2.11025      7.50000        -0.000000     -0.000000     -0.501166
      0.00000      2.11025     13.88679         0.000000      0.000000     -0.001979
      2.11025      4.22049     13.88679        -0.000000      0.000000     -0.001979
     -0.00000      4.22049     11.72984         0.000000     -0.000000      0.001336
      2.11025      2.11025     11.72984         0.000000     -0.000000      0.001336
      4.22049      6.33074      9.61025         0.000000     -0.000000      0.084903
      6.33074      0.00000      9.61025         0.000000     -0.000000      0.084903
      4.22049      0.00000      7.50000        -0.000000     -0.000000     -0.501166
      6.33074      6.33074      7.50000        -0.000000     -0.000000     -0.501166
      4.22049      6.33074     13.88679        -0.000000     -0.000000     -0.001979
      6.33074     -0.00000     13.88679         0.000000      0.000000     -0.001979
      4.22049      0.00000     11.72984         0.000000      0.000000      0.001336
      6.33074      6.33074     11.72984         0.000000      0.000000      0.001336
      4.22049      2.11025      9.61025         0.000000      0.000000      0.084903
      6.33074      4.22049      9.61025         0.000000      0.000000      0.084903
      4.22049      4.22049      7.50000         0.000000      0.000000     -0.501166
      6.33074      2.11025      7.50000        -0.000000      0.000000     -0.501166
      4.22049      2.11025     13.88679         0.000000     -0.000000     -0.001979
      6.33074      4.22049     13.88679         0.000000      0.000000     -0.001979
      4.22049      4.22049     11.72984         0.000000     -0.000000      0.001336
      6.33074      2.11025     11.72984         0.000000      0.000000      0.001336
 -----------------------------------------------------------------------------------
    total drift:                                0.000000      0.000000     -0.033596


--------------------------------------------------------------------------------------------------------



  FREE ENERGIE OF THE ION-ELECTRON SYSTEM (eV)
  ---------------------------------------------------
  free  energy   TOTEN  =      -371.29565391 eV

  energy  without entropy=     -371.29565391  energy(sigma->0) =     -371.29565391

 d Force = 0.4831569E-04[-0.504E-05, 0.102E-03]  d Energy = 0.4993150E-04-0.162E-05
 d Force =-0.1974695E+01[-0.197E+01,-0.198E+01]  d Ewald  =-0.1974695E+01 0.189E-07


--------------------------------------------------------------------------------------------------------


    POTLOK:  cpu time      0.4781: real time      0.4781


--------------------------------------------------------------------------------------------------------




--------------------------------------------------------------------------------------------------------


  
 reached required accuracy - stopping structural energy minimisation
     LOOP+:  cpu time     28.8030: real time     28.8700
    4ORBIT:  cpu time      0.0000: real time      0.0000

 total amount of memory used by VASP MPI-rank0    51205. kBytes
=======================================================================

   base      :      30000. kBytes
   nonl-proj :      10547. kBytes
   fftplans  :       2398. kBytes
   grid      :       3498. kBytes
   one-center:         64. kBytes
   wavefun   :       4698. kBytes

  
  
 General timing and accounting informations for this job:
 ========================================================
  
                  Total CPU time used (sec):      562.108
                            User time (sec):      559.256
                          System time (sec):        2.852
                         Elapsed time (sec):      574.430
  
                   Maximum memory used (kb):      144048.
                   Average memory used (kb):          N/A
  
                          Minor page faults:        29904
                          Major page faults:           52
                 Voluntary context switches:        19914
