 vasp.6.3.0 20Jan22 (build Apr  1 2022 16:44:48) complex                         
 executed on        HPECrayEX_GCC date 2023.05.17  21:47:33
 running  512 mpi-ranks, with    1 threads/rank
 distrk:  each k-point on  256 cores,    2 groups
 distr:  one band on NCORE=   4 cores,   64 groups


--------------------------------------------------------------------------------------------------------


 INCAR:
   SYSTEM = MgO-rocksalt
   ISMEAR = 0
   SIGMA = 0.05
   EDIFF = 1E-6
   ALGO = ALL
   ISTART = 0
   IBRION = -1
   NSW = 0
   ISYM = 2
   ISIF = 2
   EDIFFG = -0.01
   DIPOL = 0.5 0.5 0.5
   IDIPOL = 3
   LDIPOL = .TRUE.
   GGA = RE
   IVDW = 13
   VDW_S8 = 1.7468
   VDW_A1 = 0.5363
   VDW_A2 = 3.0726
   ENCUT = 600
   PREC = Normal
   LASPH = .TRUE.
   LREAL = .FALSE.
   ISPIN = 1
   NELM = 200
   NELMIN = 8
   NCORE = 4
   KPAR = 2
   LWAVE = .FALSE.
   LCHARG = .FALSE.

 POTCAR:    PAW_PBE C 08Apr2002                   
 POTCAR:    PAW_PBE O 08Apr2002                   
 POTCAR:    PAW_PBE Mg_pv 13Apr2007               
 POTCAR:    PAW_PBE O 08Apr2002                   
 POTCAR:    PAW_PBE C 08Apr2002                   
   SHA256 =  253f7b50bb8d59471dbedb8285d89021f4a42ed1a2c5d38a03a736e69125dd95 C/POTCAR              
   COPYR  = (c) Copyright 08Apr2002 Georg Kresse                                                    
   COPYR  = This file is part of the software VASP. Any use, copying, and all other rights are regul
   COPYR  = If you do not have a valid VASP license, you may not use, copy or distribute this file. 
   VRHFIN =C: s2p2                                                                                  
   LEXCH  = PE                                                                                      
   EATOM  =   147.1560 eV,   10.8157 Ry                                                             
                                                                                                    
   TITEL  = PAW_PBE C 08Apr2002                                                                     
   LULTRA =        F    use ultrasoft PP ?                                                          
   IUNSCR =        1    unscreen: 0-lin 1-nonlin 2-no                                               
   RPACOR =    1.200    partial core radius                                                         
   POMASS =   12.011; ZVAL   =    4.000    mass and valenz                                          
   RCORE  =    1.500    outmost cutoff radius                                                       
   RWIGS  =    1.630; RWIGS  =    0.863    wigner-seitz radius (au A)                               
   ENMAX  =  400.000; ENMIN  =  300.000 eV                                                          
   ICORE  =        2    local potential                                                             
   LCOR   =        T    correct aug charges                                                         
   LPAW   =        T    paw PP                                                                      
   EAUG   =  644.873                                                                                
   DEXC   =    0.000                                                                                
   RMAX   =    1.529    core radius for proj-oper                                                   
   RAUG   =    1.300    factor for augmentation sphere                                              
   RDEP   =    1.501    radius for radial grids                                                     
   RDEPT  =    1.300    core radius for aug-charge                                                  
                                                                                                    
   Atomic configuration                                                                             
    4 entries                                                                                       
     n  l   j            E        occ.                                                              
     1  0  0.50      -273.3789   2.0000                                                             
     2  0  0.50       -13.7508   2.0000                                                             
     2  1  0.50        -5.2854   2.0000                                                             
     3  2  1.50        -5.4423   0.0000                                                             
   Description                                                                                      
     l       E           TYP  RCUT    TYP  RCUT                                                     
     0    -13.7508458     23  1.200                                                                 
     0     -8.2022199     23  1.200                                                                 
     1     -5.2854383     23  1.500                                                                 
     1     34.0145650     23  1.500                                                                 
     2     -5.4423304      7  1.500                                                                 
  local pseudopotential read in
  partial core-charges read in
  partial kinetic energy density read in
  atomic valenz-charges read in
  non local Contribution for L=           0  read in
    real space projection operators read in
  non local Contribution for L=           0  read in
    real space projection operators read in
  non local Contribution for L=           1  read in
    real space projection operators read in
  non local Contribution for L=           1  read in
    real space projection operators read in
    PAW grid and wavefunctions read in

   number of l-projection  operators is LMAX  =           4
   number of lm-projection operators is LMMAX =           8

 POTCAR:    PAW_PBE O 08Apr2002                   
   SHA256 =  818f92134a0a090dccd8ba1447fa70422a3b330e708bb4f08108d8ae51209ddf O/POTCAR              
   COPYR  = (c) Copyright 08Apr2002 Georg Kresse                                                    
   COPYR  = This file is part of the software VASP. Any use, copying, and all other rights are regul
   COPYR  = If you do not have a valid VASP license, you may not use, copy or distribute this file. 
   VRHFIN =O: s2p4                                                                                  
   LEXCH  = PE                                                                                      
   EATOM  =   432.3788 eV,   31.7789 Ry                                                             
                                                                                                    
   TITEL  = PAW_PBE O 08Apr2002                                                                     
   LULTRA =        F    use ultrasoft PP ?                                                          
   IUNSCR =        1    unscreen: 0-lin 1-nonlin 2-no                                               
   RPACOR =    1.200    partial core radius                                                         
   POMASS =   16.000; ZVAL   =    6.000    mass and valenz                                          
   RCORE  =    1.520    outmost cutoff radius                                                       
   RWIGS  =    1.550; RWIGS  =    0.820    wigner-seitz radius (au A)                               
   ENMAX  =  400.000; ENMIN  =  300.000 eV                                                          
   ICORE  =        2    local potential                                                             
   LCOR   =        T    correct aug charges                                                         
   LPAW   =        T    paw PP                                                                      
   EAUG   =  605.392                                                                                
   DEXC   =    0.000                                                                                
   RMAX   =    1.553    core radius for proj-oper                                                   
   RAUG   =    1.300    factor for augmentation sphere                                              
   RDEP   =    1.550    radius for radial grids                                                     
   RDEPT  =    1.329    core radius for aug-charge                                                  
                                                                                                    
   Atomic configuration                                                                             
    4 entries                                                                                       
     n  l   j            E        occ.                                                              
     1  0  0.50      -514.6923   2.0000                                                             
     2  0  0.50       -23.9615   2.0000                                                             
     2  1  0.50        -9.0305   4.0000                                                             
     3  2  1.50        -9.5241   0.0000                                                             
   Description                                                                                      
     l       E           TYP  RCUT    TYP  RCUT                                                     
     0    -23.9615318     23  1.200                                                                 
     0     -9.5240782     23  1.200                                                                 
     1     -9.0304911     23  1.520                                                                 
     1      8.1634956     23  1.520                                                                 
     2     -9.5240782      7  1.500                                                                 
  local pseudopotential read in
  partial core-charges read in
  partial kinetic energy density read in
  kinetic energy density of atom read in
  atomic valenz-charges read in
  non local Contribution for L=           0  read in
    real space projection operators read in
  non local Contribution for L=           0  read in
    real space projection operators read in
  non local Contribution for L=           1  read in
    real space projection operators read in
  non local Contribution for L=           1  read in
    real space projection operators read in
    PAW grid and wavefunctions read in

   number of l-projection  operators is LMAX  =           4
   number of lm-projection operators is LMMAX =           8

 POTCAR:    PAW_PBE Mg_pv 13Apr2007               
   SHA256 =  f474ac0dd33840b9ae76c01d57fea79fdf77cdfbb07d5ade72c65f83c709b62b Mg_pv/POTCAR          
   COPYR  = (c) Copyright 13Apr2007 Georg Kresse                                                    
   COPYR  = This file is part of the software VASP. Any use, copying, and all other rights are regul
   COPYR  = If you do not have a valid VASP license, you may not use, copy or distribute this file. 
   VRHFIN =Mg: p6s2                                                                                 
   LEXCH  = PE                                                                                      
   EATOM  =  1056.7344 eV,   77.6678 Ry                                                             
                                                                                                    
   TITEL  = PAW_PBE Mg_pv 13Apr2007                                                                 
   LULTRA =        F    use ultrasoft PP ?                                                          
   IUNSCR =        1    unscreen: 0-lin 1-nonlin 2-no                                               
   RPACOR =    1.500    partial core radius                                                         
   POMASS =   24.305; ZVAL   =    8.000    mass and valenz                                          
   RCORE  =    2.000    outmost cutoff radius                                                       
   RWIGS  =    2.000; RWIGS  =    1.058    wigner-seitz radius (au A)                               
   ENMAX  =  403.929; ENMIN  =  302.947 eV                                                          
   RCLOC  =    1.506    cutoff for local pot                                                        
   LCOR   =        T    correct aug charges                                                         
   LPAW   =        T    paw PP                                                                      
   EAUG   =  758.780                                                                                
   DEXC   =    0.000                                                                                
   RMAX   =    2.045    core radius for proj-oper                                                   
   RAUG   =    1.300    factor for augmentation sphere                                              
   RDEP   =    2.025    radius for radial grids                                                     
   RDEPT  =    1.557    core radius for aug-charge                                                  
                                                                                                    
   Atomic configuration                                                                             
    5 entries                                                                                       
     n  l   j            E        occ.                                                              
     1  0  0.50     -1259.6230   2.0000                                                             
     2  0  0.50       -79.8442   2.0000                                                             
     2  1  1.50       -46.6121   6.0000                                                             
     3  0  0.50        -4.7055   2.0000                                                             
     3  2  1.50        -1.3606   0.0000                                                             
   Description                                                                                      
     l       E           TYP  RCUT    TYP  RCUT                                                     
     1    -46.6121073     23  1.600                                                                 
     1      2.7211652     23  1.600                                                                 
     0     -4.7054661     23  2.000                                                                 
     0     61.2262170     23  2.000                                                                 
     2     -1.3605826     23  2.000                                                                 
  local pseudopotential read in
  partial core-charges read in
  partial kinetic energy density read in
  atomic valenz-charges read in
  non local Contribution for L=           1  read in
    real space projection operators read in
  non local Contribution for L=           1  read in
    real space projection operators read in
  non local Contribution for L=           0  read in
    real space projection operators read in
  non local Contribution for L=           0  read in
    real space projection operators read in
  non local Contribution for L=           2  read in
    real space projection operators read in
    PAW grid and wavefunctions read in

   number of l-projection  operators is LMAX  =           5
   number of lm-projection operators is LMMAX =          13

 POTCAR:    PAW_PBE O 08Apr2002                   
   SHA256 =  818f92134a0a090dccd8ba1447fa70422a3b330e708bb4f08108d8ae51209ddf O/POTCAR              
   COPYR  = (c) Copyright 08Apr2002 Georg Kresse                                                    
   COPYR  = This file is part of the software VASP. Any use, copying, and all other rights are regul
   COPYR  = If you do not have a valid VASP license, you may not use, copy or distribute this file. 
   VRHFIN =O: s2p4                                                                                  
   LEXCH  = PE                                                                                      
   EATOM  =   432.3788 eV,   31.7789 Ry                                                             
                                                                                                    
   TITEL  = PAW_PBE O 08Apr2002                                                                     
   LULTRA =        F    use ultrasoft PP ?                                                          
   IUNSCR =        1    unscreen: 0-lin 1-nonlin 2-no                                               
   RPACOR =    1.200    partial core radius                                                         
   POMASS =   16.000; ZVAL   =    6.000    mass and valenz                                          
   RCORE  =    1.520    outmost cutoff radius                                                       
   RWIGS  =    1.550; RWIGS  =    0.820    wigner-seitz radius (au A)                               
   ENMAX  =  400.000; ENMIN  =  300.000 eV                                                          
   ICORE  =        2    local potential                                                             
   LCOR   =        T    correct aug charges                                                         
   LPAW   =        T    paw PP                                                                      
   EAUG   =  605.392                                                                                
   DEXC   =    0.000                                                                                
   RMAX   =    1.553    core radius for proj-oper                                                   
   RAUG   =    1.300    factor for augmentation sphere                                              
   RDEP   =    1.550    radius for radial grids                                                     
   RDEPT  =    1.329    core radius for aug-charge                                                  
                                                                                                    
   Atomic configuration                                                                             
    4 entries                                                                                       
     n  l   j            E        occ.                                                              
     1  0  0.50      -514.6923   2.0000                                                             
     2  0  0.50       -23.9615   2.0000                                                             
     2  1  0.50        -9.0305   4.0000                                                             
     3  2  1.50        -9.5241   0.0000                                                             
   Description                                                                                      
     l       E           TYP  RCUT    TYP  RCUT                                                     
     0    -23.9615318     23  1.200                                                                 
     0     -9.5240782     23  1.200                                                                 
     1     -9.0304911     23  1.520                                                                 
     1      8.1634956     23  1.520                                                                 
     2     -9.5240782      7  1.500                                                                 
  local pseudopotential read in
  partial core-charges read in
  partial kinetic energy density read in
  kinetic energy density of atom read in
  atomic valenz-charges read in
  non local Contribution for L=           0  read in
    real space projection operators read in
  non local Contribution for L=           0  read in
    real space projection operators read in
  non local Contribution for L=           1  read in
    real space projection operators read in
  non local Contribution for L=           1  read in
    real space projection operators read in
    PAW grid and wavefunctions read in

   number of l-projection  operators is LMAX  =           4
   number of lm-projection operators is LMMAX =           8

 -----------------------------------------------------------------------------
|                                                                             |
|               ----> ADVICE to this user running VASP <----                  |
|                                                                             |
|     You have a (more or less) 'large supercell' and for larger cells it     |
|     might be more efficient to use real-space projection operators.         |
|     Therefore, try LREAL= Auto in the INCAR file.                           |
|     Mind: For very accurate calculation, you might also keep the            |
|     reciprocal projection scheme (i.e. LREAL=.FALSE.).                      |
|                                                                             |
 -----------------------------------------------------------------------------

 -----------------------------------------------------------------------------
|                                                                             |
|               ----> ADVICE to this user running VASP <----                  |
|                                                                             |
|     You enforced a specific xc type in the INCAR file but a different       |
|     type was found in the POTCAR file.                                      |
|     I HOPE YOU KNOW WHAT YOU ARE DOING!                                     |
|                                                                             |
 -----------------------------------------------------------------------------

  PAW_PBE C 08Apr2002                   :
 energy of atom  1       EATOM= -147.1560
 kinetic energy error for atom=    0.0057 (will be added to EATOM!!)
  PAW_PBE O 08Apr2002                   :
 energy of atom  2       EATOM= -432.3788
 kinetic energy error for atom=    0.0168 (will be added to EATOM!!)
  PAW_PBE Mg_pv 13Apr2007               :
 energy of atom  3       EATOM=-1056.7344
 kinetic energy error for atom=    0.0221 (will be added to EATOM!!)
  PAW_PBE O 08Apr2002                   :
 energy of atom  4       EATOM= -432.3788
 kinetic energy error for atom=    0.0168 (will be added to EATOM!!)


 POSCAR:  C  O Mg  O
  positions in direct lattice
  No initial velocities read in
 -----------------------------------------------------------------------------
|                                                                             |
|           W    W    AA    RRRRR   N    N  II  N    N   GGGG   !!!           |
|           W    W   A  A   R    R  NN   N  II  NN   N  G    G  !!!           |
|           W    W  A    A  R    R  N N  N  II  N N  N  G       !!!           |
|           W WW W  AAAAAA  RRRRR   N  N N  II  N  N N  G  GGG   !            |
|           WW  WW  A    A  R   R   N   NN  II  N   NN  G    G                |
|           W    W  A    A  R    R  N    N  II  N    N   GGGG   !!!           |
|                                                                             |
|     Specifying the vdW parameters                                           |
|     VDW_S8 = 1.747                                                          |
|     VDW_A1 = 0.536                                                          |
|     VDW_A2 = 3.073                                                          |
|     in the INCAR file will overwrite the defaults for revpbe. Please        |
|     make sure that is what you intended.                                    |
|                                                                             |
 -----------------------------------------------------------------------------

 exchange correlation table for  LEXCH =       40
   RHO(1)=    0.500       N(1)  =     2000
   RHO(2)=  100.500       N(2)  =     4000



--------------------------------------------------------------------------------------------------------


 ion  position               nearest neighbor table
   1  0.500  0.500  0.771-   2 1.15
   2  0.500  0.500  0.824-   1 1.15
   3  0.000  0.750  0.352-  35 2.11  37 2.11  38 2.11  45 2.11  54 2.11
   4  0.250  0.000  0.352-  36 2.11  37 2.11  38 2.11  46 2.11  53 2.11
   5  0.000  0.000  0.451-  37 2.11  36 2.11  35 2.11  43 2.11  52 2.11  41 2.12
   6  0.250  0.750  0.451-  38 2.11  36 2.11  35 2.11  44 2.11  51 2.11  42 2.12
   7  0.000  0.750  0.550-  49 2.11  42 2.11  58 2.11  41 2.11  35 2.12  39 2.15
   8  0.250  0.000  0.550-  57 2.11  50 2.11  42 2.11  41 2.11  36 2.12  40 2.15
   9  0.000  0.000  0.649-  39 2.11  40 2.11  47 2.11  56 2.11  41 2.11
  10  0.250  0.750  0.649-  42 2.11  40 2.11  39 2.11  48 2.11  55 2.11
  11  0.000  0.250  0.352-  43 2.11  37 2.11  45 2.11  46 2.11  62 2.11
  12  0.250  0.500  0.352-  44 2.11  38 2.11  45 2.11  46 2.11  61 2.11
  13  0.000  0.500  0.451-  45 2.11  43 2.11  44 2.11  35 2.11  60 2.11  49 2.12
  14  0.250  0.250  0.451-  46 2.11  43 2.11  44 2.11  36 2.11  59 2.11  50 2.12
  15  0.000  0.250  0.550-  49 2.11  50 2.11  66 2.11  41 2.11  43 2.12  47 2.15
  16  0.250  0.500  0.550-  65 2.11  50 2.11  42 2.11  49 2.11  44 2.13  48 2.15
  17  0.000  0.500  0.649-  48 2.10  64 2.10  49 2.11  47 2.11  39 2.11
  18  0.250  0.250  0.649-  50 2.11  47 2.11  40 2.11  48 2.11  63 2.11
  19  0.500  0.750  0.352-  51 2.11  38 2.11  53 2.11  54 2.11  61 2.11
  20  0.750  0.000  0.352-  52 2.11  37 2.11  53 2.11  54 2.11  62 2.11
  21  0.500  0.000  0.451-  53 2.11  51 2.11  52 2.11  36 2.11  59 2.11  57 2.12
  22  0.750  0.750  0.451-  54 2.11  51 2.11  52 2.11  35 2.11  60 2.11  58 2.12
  23  0.500  0.750  0.550-  65 2.11  58 2.11  42 2.11  57 2.11  51 2.13  55 2.15
  24  0.750  0.000  0.550-  57 2.11  58 2.11  66 2.11  41 2.11  52 2.12  56 2.15
  25  0.500  0.000  0.649-  55 2.10  63 2.10  57 2.11  40 2.11  56 2.11
  26  0.750  0.750  0.649-  58 2.11  56 2.11  39 2.11  55 2.11  64 2.11
  27  0.500  0.250  0.352-  59 2.11  53 2.11  46 2.11  61 2.11  62 2.11
  28  0.750  0.500  0.352-  60 2.11  54 2.11  45 2.11  61 2.11  62 2.11
  29  0.500  0.500  0.451-  61 2.11  51 2.11  59 2.11  60 2.11  44 2.11  65 2.13
  30  0.750  0.250  0.451-  62 2.11  52 2.11  59 2.11  60 2.11  43 2.11  66 2.12
  31  0.500  0.250  0.550-  65 2.11  50 2.11  66 2.11  57 2.11  59 2.13  63 2.15
  32  0.750  0.500  0.550-  65 2.11  58 2.11  66 2.11  49 2.11  60 2.13  64 2.15
  33  0.500  0.500  0.651-  48 2.12  55 2.12  63 2.12  64 2.12  65 2.14
  34  0.750  0.250  0.649-  66 2.11  56 2.11  47 2.11  64 2.11  63 2.11
  35  0.000  0.750  0.451-   3 2.11   5 2.11   6 2.11  13 2.11  22 2.11   7 2.12
  36  0.250  0.000  0.451-   4 2.11   5 2.11   6 2.11  14 2.11  21 2.11   8 2.12
  37  0.000  0.000  0.352-   5 2.11   4 2.11   3 2.11  11 2.11  20 2.11
  38  0.250  0.750  0.352-   6 2.11   4 2.11   3 2.11  12 2.11  19 2.11
  39  0.000  0.750  0.651-   9 2.11  10 2.11  26 2.11  17 2.11   7 2.15
  40  0.250  0.000  0.651-   9 2.11  10 2.11  18 2.11  25 2.11   8 2.15
  41  0.000  0.000  0.550-   9 2.11   8 2.11   7 2.11  15 2.11  24 2.11   5 2.12
  42  0.250  0.750  0.550-  10 2.11   8 2.11   7 2.11  16 2.11  23 2.11   6 2.12
  43  0.000  0.250  0.451-  11 2.11   5 2.11  13 2.11  14 2.11  30 2.11  15 2.12
  44  0.250  0.500  0.451-  12 2.11   6 2.11  13 2.11  14 2.11  29 2.11  16 2.13
  45  0.000  0.500  0.352-  13 2.11  11 2.11  12 2.11   3 2.11  28 2.11
  46  0.250  0.250  0.352-  14 2.11  11 2.11  12 2.11   4 2.11  27 2.11
  47  0.000  0.250  0.651-   9 2.11  18 2.11  34 2.11  17 2.11  15 2.15
  48  0.249  0.500  0.651-  17 2.10  10 2.11  18 2.11  33 2.12  16 2.15
  49  0.000  0.500  0.550-  17 2.11  15 2.11   7 2.11  16 2.11  32 2.11  13 2.12
  50  0.250  0.250  0.550-  18 2.11  15 2.11   8 2.11  16 2.11  31 2.11  14 2.12
  51  0.500  0.750  0.451-  19 2.11   6 2.11  21 2.11  22 2.11  29 2.11  23 2.13
  52  0.750  0.000  0.451-  20 2.11   5 2.11  21 2.11  22 2.11  30 2.11  24 2.12
  53  0.500  0.000  0.352-  21 2.11  19 2.11  20 2.11   4 2.11  27 2.11
  54  0.750  0.750  0.352-  22 2.11  19 2.11  20 2.11   3 2.11  28 2.11
  55  0.500  0.751  0.651-  25 2.10  10 2.11  26 2.11  33 2.12  23 2.15
  56  0.750  0.000  0.651-   9 2.11  26 2.11  34 2.11  25 2.11  24 2.15
  57  0.500  0.000  0.550-  25 2.11  24 2.11   8 2.11  23 2.11  31 2.11  21 2.12
  58  0.750  0.750  0.550-  26 2.11  24 2.11   7 2.11  32 2.11  23 2.11  22 2.12
  59  0.500  0.250  0.451-  27 2.11  21 2.11  14 2.11  29 2.11  30 2.11  31 2.13
  60  0.750  0.500  0.451-  28 2.11  22 2.11  13 2.11  29 2.11  30 2.11  32 2.13
  61  0.500  0.500  0.352-  29 2.11  19 2.11  27 2.11  28 2.11  12 2.11
  62  0.750  0.250  0.352-  30 2.11  20 2.11  27 2.11  28 2.11  11 2.11
  63  0.500  0.249  0.651-  25 2.10  18 2.11  34 2.11  33 2.12  31 2.15
  64  0.751  0.500  0.651-  17 2.10  26 2.11  34 2.11  33 2.12  32 2.15
  65  0.500  0.500  0.550-  16 2.11  23 2.11  31 2.11  32 2.11  29 2.13  33 2.14
  66  0.750  0.250  0.550-  34 2.11  24 2.11  15 2.11  32 2.11  31 2.11  30 2.12

  LATTYP: Found a simple tetragonal cell.
 ALAT       =     8.4409846542
 C/A-ratio  =     2.5270438657
  
  Lattice vectors:
  
 A1 = (   8.4409846542,   0.0000000000,   0.0000000000)
 A2 = (   0.0000000000,   8.4409846542,   0.0000000000)
 A3 = (   0.0000000000,   0.0000000000,  21.3307384906)


Analysis of symmetry for initial positions (statically):
=====================================================================
 Subroutine PRICEL returns:
 Original cell was already a primitive cell.
 

 Routine SETGRP: Setting up the symmetry group for a 
 simple tetragonal supercell.


 Subroutine GETGRP returns: Found  8 space group operations
 (whereof  8 operations were pure point group operations)
 out of a pool of 16 trial point group operations.


The static configuration has the point symmetry C_4v.


Analysis of symmetry for dynamics (positions and initial velocities):
=====================================================================
 Subroutine PRICEL returns:
 Original cell was already a primitive cell.
 

 Routine SETGRP: Setting up the symmetry group for a 
 simple tetragonal supercell.


 Subroutine GETGRP returns: Found  8 space group operations
 (whereof  8 operations were pure point group operations)
 out of a pool of 16 trial point group operations.


The dynamic configuration has the point symmetry C_4v.


 Subroutine INISYM returns: Found  8 space group operations
 (whereof  8 operations are pure point group operations),
 and found     1 'primitive' translations


----------------------------------------------------------------------------------------

                                     Primitive cell                                     

  volume of cell :    1519.8199

  direct lattice vectors                    reciprocal lattice vectors
     8.440984654  0.000000000  0.000000000     0.118469591  0.000000000  0.000000000
     0.000000000  8.440984654  0.000000000     0.000000000  0.118469591  0.000000000
     0.000000000  0.000000000 21.330738491     0.000000000  0.000000000  0.046880702

  length of vectors
     8.440984654  8.440984654 21.330738491     0.118469591  0.118469591  0.046880702

  position of ions in fractional coordinates (direct lattice)
     0.500000000  0.500000000  0.770631558
     0.500000000  0.500000000  0.824395276
     0.000000000  0.750000000  0.351605267
     0.250000000  0.000000000  0.351605267
     0.000000000  0.000000000  0.450535089
     0.250000000  0.750000000  0.450535089
     0.000000000  0.749939268  0.550083239
     0.250060732  0.000000000  0.550083239
     0.000000000  0.000000000  0.648745309
     0.249858327  0.750141673  0.648569547
     0.000000000  0.250000000  0.351605267
     0.250000000  0.500000000  0.351605267
     0.000000000  0.500000000  0.450535089
     0.250000000  0.250000000  0.450535089
     0.000000000  0.250060732  0.550083239
     0.250378379  0.500000000  0.550219524
     0.000000000  0.500000000  0.648615280
     0.249858327  0.249858327  0.648569547
     0.500000000  0.750000000  0.351605267
     0.750000000  0.000000000  0.351605267
     0.500000000  0.000000000  0.450535089
     0.750000000  0.750000000  0.450535089
     0.500000000  0.749621621  0.550219524
     0.749939268  0.000000000  0.550083239
     0.500000000  0.000000000  0.648615280
     0.750141673  0.750141673  0.648569547
     0.500000000  0.250000000  0.351605267
     0.750000000  0.500000000  0.351605267
     0.500000000  0.500000000  0.450535089
     0.750000000  0.250000000  0.450535089
     0.500000000  0.250378379  0.550219524
     0.749621621  0.500000000  0.550219524
     0.500000000  0.500000000  0.650616960
     0.750141673  0.249858327  0.648569547
     0.000000000  0.750000000  0.450535089
     0.250000000  0.000000000  0.450535089
     0.000000000  0.000000000  0.351605267
     0.250000000  0.750000000  0.351605267
     0.000000000  0.750218533  0.650979255
     0.249781467  0.000000000  0.650979255
     0.000000000  0.000000000  0.549809890
     0.249945770  0.750054230  0.549859113
     0.000000000  0.250000000  0.450535089
     0.250000000  0.500000000  0.450535089
     0.000000000  0.500000000  0.351605267
     0.250000000  0.250000000  0.351605267
     0.000000000  0.249781467  0.650979255
     0.248822710  0.500000000  0.650882872
     0.000000000  0.500000000  0.549762666
     0.249945770  0.249945770  0.549859113
     0.500000000  0.750000000  0.450535089
     0.750000000  0.000000000  0.450535089
     0.500000000  0.000000000  0.351605267
     0.750000000  0.750000000  0.351605267
     0.500000000  0.751177290  0.650882872
     0.750218533  0.000000000  0.650979255
     0.500000000  0.000000000  0.549762666
     0.750054230  0.750054230  0.549859113
     0.500000000  0.250000000  0.450535089
     0.750000000  0.500000000  0.450535089
     0.500000000  0.500000000  0.351605267
     0.750000000  0.250000000  0.351605267
     0.500000000  0.248822710  0.650882872
     0.751177290  0.500000000  0.650882872
     0.500000000  0.500000000  0.550231357
     0.750054230  0.249945770  0.549859113

  ion indices of the primitive-cell ions
   primitive index   ion index
                 1           1
                 2           2
                 3           3
                 4           4
                 5           5
                 6           6
                 7           7
                 8           8
                 9           9
                10          10
                11          11
                12          12
                13          13
                14          14
                15          15
                16          16
                17          17
                18          18
                19          19
                20          20
                21          21
                22          22
                23          23
                24          24
                25          25
                26          26
                27          27
                28          28
                29          29
                30          30
                31          31
                32          32
                33          33
                34          34
                35          35
                36          36
                37          37
                38          38
                39          39
                40          40
                41          41
                42          42
                43          43
                44          44
                45          45
                46          46
                47          47
                48          48
                49          49
                50          50
                51          51
                52          52
                53          53
                54          54
                55          55
                56          56
                57          57
                58          58
                59          59
                60          60
                61          61
                62          62
                63          63
                64          64
                65          65
                66          66

----------------------------------------------------------------------------------------



 KPOINTS: pymatgen v2020.8.13 with grid density = 

Automatic generation of k-mesh.
 Grid dimensions read from file:
 generate k-points for:    2    2    1

 Generating k-lattice:

  Cartesian coordinates                     Fractional coordinates (reciprocal lattice)
     0.059234796  0.000000000  0.000000000     0.500000000  0.000000000  0.000000000
     0.000000000  0.059234796  0.000000000     0.000000000  0.500000000  0.000000000
     0.000000000  0.000000000  0.046880702     0.000000000  0.000000000  1.000000000

  Length of vectors
     0.059234796  0.059234796  0.046880702

  Shift w.r.t. Gamma in fractional coordinates (k-lattice)
     0.000000000  0.000000000  0.000000000

 
 Subroutine IBZKPT returns following result:
 ===========================================
 
 Found      3 irreducible k-points:
 
 Following reciprocal coordinates:
            Coordinates               Weight
  0.000000  0.000000  0.000000      1.000000
  0.500000  0.000000  0.000000      2.000000
  0.500000  0.500000  0.000000      1.000000
 
 Following cartesian coordinates:
            Coordinates               Weight
  0.000000  0.000000  0.000000      1.000000
  0.059235  0.000000  0.000000      2.000000
  0.059235  0.059235  0.000000      1.000000
 


--------------------------------------------------------------------------------------------------------




 Dimension of arrays:
   k-points           NKPTS =      3   k-points in BZ     NKDIM =      3   number of bands    NBANDS=    320
   number of dos      NEDOS =    301   number of ions     NIONS =     66
   non local maximal  LDIM  =      5   non local SUM 2l+1 LMDIM =     13
   total plane-waves  NPLWV = 373248
   max r-space proj   IRMAX =      1   max aug-charges    IRDMAX=   5039
   dimension x,y,z NGX =    54 NGY =   54 NGZ =  128
   dimension x,y,z NGXF=   108 NGYF=  108 NGZF=  256
   support grid    NGXF=   108 NGYF=  108 NGZF=  256
   ions per type =               1   1  32  32
   NGX,Y,Z   is equivalent  to a cutoff of  10.64, 10.64,  9.98 a.u.
   NGXF,Y,Z  is equivalent  to a cutoff of  21.27, 21.27, 19.95 a.u.

 SYSTEM =  MgO-rocksalt                            
 POSCAR =   C  O Mg  O                             

 Startparameter for this run:
   NWRITE =      2    write-flag & timer
   PREC   = normal    normal or accurate (medium, high low for compatibility)
   ISTART =      0    job   : 0-new  1-cont  2-samecut
   ICHARG =      2    charge: 1-file 2-atom 10-const
   ISPIN  =      1    spin polarized calculation?
   LNONCOLLINEAR =      F non collinear calculations
   LSORBIT =      F    spin-orbit coupling
   INIWAV =      1    electr: 0-lowe 1-rand  2-diag
   LASPH  =      T    aspherical Exc in radial PAW
 Electronic Relaxation 1
   ENCUT  =  600.0 eV  44.10 Ry    6.64 a.u.  16.86 16.86 42.60*2*pi/ulx,y,z
   ENINI  =  600.0     initial cutoff
   ENAUG  =  758.8 eV  augmentation charge cutoff
   NELM   =    200;   NELMIN=  8; NELMDL= -5     # of ELM steps 
   EDIFF  = 0.1E-05   stopping-criterion for ELM
   LREAL  =      F    real-space projection
   NLSPLINE    = F    spline interpolate recip. space projectors
   LCOMPAT=      F    compatible to vasp.4.4
   GGA_COMPAT  = T    GGA compatible to vasp.4.4-vasp.4.6
   LMAXPAW     = -100 max onsite density
   LMAXMIX     =    2 max onsite mixed and CHGCAR
   VOSKOWN=      0    Vosko Wilk Nusair interpolation
   ROPT   =    0.00000   0.00000   0.00000   0.00000
 Ionic relaxation
   EDIFFG = -.1E-01   stopping-criterion for IOM
   NSW    =      0    number of steps for IOM
   NBLOCK =      1;   KBLOCK =      1    inner block; outer block 
   IBRION =     -1    ionic relax: 0-MD 1-quasi-New 2-CG
   NFREE  =      0    steps in history (QN), initial steepest desc. (CG)
   ISIF   =      2    stress and relaxation
   IWAVPR =     10    prediction:  0-non 1-charg 2-wave 3-comb
   ISYM   =      2    0-nonsym 1-usesym 2-fastsym
   LCORR  =      T    Harris-Foulkes like correction to forces

   POTIM  = 0.5000    time-step for ionic-motion
   TEIN   =    0.0    initial temperature
   TEBEG  =    0.0;   TEEND  =   0.0 temperature during run
   SMASS  =  -3.00    Nose mass-parameter (am)
   estimated Nose-frequenzy (Omega)   =  0.10E-29 period in steps = 0.13E+47 mass=  -0.163E-26a.u.
   SCALEE = 1.0000    scale energy and forces
   NPACO  =    256;   APACO  = 10.0  distance and # of slots for P.C.
   PSTRESS=    0.0 pullay stress

  Mass of Ions in am
   POMASS =  12.01 16.00 24.30 16.00
  Ionic Valenz
   ZVAL   =   4.00  6.00  8.00  6.00
  Atomic Wigner-Seitz radii
   RWIGS  =  -1.00 -1.00 -1.00 -1.00
  virtual crystal weights 
   VCA    =   1.00  1.00  1.00  1.00
   NELECT =     458.0000    total number of electrons
   NUPDOWN=      -1.0000    fix difference up-down

 DOS related values:
   EMIN   =  10.00;   EMAX   =-10.00  energy-range for DOS
   EFERMI =   0.00
   ISMEAR =     0;   SIGMA  =   0.05  broadening in eV -4-tet -1-fermi 0-gaus

 Electronic relaxation 2 (details)
   IALGO  =     58    algorithm
   LDIAG  =      T    sub-space diagonalisation (order eigenvalues)
   LSUBROT=      F    optimize rotation matrix (better conditioning)
   TURBO    =      0    0=normal 1=particle mesh
   IRESTART =      0    0=no restart 2=restart with 2 vectors
   NREBOOT  =      0    no. of reboots
   NMIN     =      0    reboot dimension
   EREF     =   0.00    reference energy to select bands
   IMIX   =      4    mixing-type and parameters
     AMIX     =   0.40;   BMIX     =  1.00
     AMIX_MAG =   1.60;   BMIX_MAG =  1.00
     AMIN     =   0.10
     WC   =   100.;   INIMIX=   1;  MIXPRE=   1;  MAXMIX= -45

 Intra band minimization:
   WEIMIN = 0.0000     energy-eigenvalue tresh-hold
   EBREAK =  0.78E-09  absolut break condition
   DEPER  =   0.30     relativ break condition  

   TIME   =   0.40     timestep for ELM

  volume/ion in A,a.u.               =      23.03       155.40
  Fermi-wavevector in a.u.,A,eV,Ry     =   1.097571  2.074108 16.390423  1.204662
  Thomas-Fermi vector in A             =   2.233933

 Write flags
   LWAVE        =      F    write WAVECAR
   LDOWNSAMPLE  =      F    k-point downsampling of WAVECAR
   LCHARG       =      F    write CHGCAR
   LVTOT        =      F    write LOCPOT, total local potential
   LVHAR        =      F    write LOCPOT, Hartree potential only
   LELF         =      F    write electronic localiz. function (ELF)
   LORBIT       =      0    0 simple, 1 ext, 2 COOP (PROOUT), +10 PAW based schemes


 Dipole corrections
   LMONO  =      F    monopole corrections only (constant potential shift)
   LDIPOL =      T    correct potential (dipole corrections)
   IDIPOL =      3    1-x, 2-y, 3-z, 4-all directions 
   EPSILON=  1.0000000 bulk dielectric constant

 Exchange correlation treatment:
   GGA     =    RE    GGA type
   LEXCH   =    40    internal setting for exchange type
   LIBXC   =     F    Libxc                    
   VOSKOWN =     0    Vosko Wilk Nusair interpolation
   LHFCALC =     F    Hartree Fock is set to
   LHFONE  =     F    Hartree Fock one center treatment
   AEXX    =    0.0000 exact exchange contribution

 Linear response parameters
   LEPSILON=     F    determine dielectric tensor
   LRPA    =     F    only Hartree local field effects (RPA)
   LNABLA  =     F    use nabla operator in PAW spheres
   LVEL    =     F    velocity operator in full k-point grid
   CSHIFT  =0.1000    complex shift for real part using Kramers Kronig
   OMEGAMAX=  -1.0    maximum frequency
   DEG_THRESHOLD= 0.2000000E-02 threshold for treating states as degnerate
   RTIME   =   -0.100 relaxation time in fs
  (WPLASMAI=    0.000 imaginary part of plasma frequency in eV, 0.658/RTIME)
   DFIELD  = 0.0000000 0.0000000 0.0000000 field for delta impulse in time

  Optional k-point grid parameters
   LKPOINTS_OPT  =     F    use optional k-point grid
   KPOINTS_OPT_MODE=     1    mode for optional k-point grid

 Orbital magnetization related:
   ORBITALMAG=     F  switch on orbital magnetization
   LCHIMAG   =     F  perturbation theory with respect to B field
   DQ        =  0.001000  dq finite difference perturbation B field
   LLRAUG    =     F  two centre corrections for induced B field



--------------------------------------------------------------------------------------------------------


 Static calculation
 charge density and potential will be updated during run
 non-spin polarized calculation
 Conjugate gradient for all bands (Freysoldt, et al. PRB 79, 241103 (2009))
 preconditioned conjugated gradient                                        
 perform sub-space diagonalisation
    before iterative eigenvector-optimisation
 modified Broyden-mixing scheme, WC =      100.0
 initial mixing is a Kerker type mixing with AMIX =  0.4000 and BMIX =      1.0000
 Hartree-type preconditioning will be used
 using additional bands           91
 reciprocal scheme for non local part
 use partial core corrections
 no Harris-corrections to forces 
 use gradient corrections 
 use of overlap-Matrix (Vanderbilt PP)
 Gauss-broadening in eV      SIGMA  =   0.05


--------------------------------------------------------------------------------------------------------


  energy-cutoff  :      600.00
  volume of cell :     1519.82
      direct lattice vectors                 reciprocal lattice vectors
     8.440984654  0.000000000  0.000000000     0.118469591  0.000000000  0.000000000
     0.000000000  8.440984654  0.000000000     0.000000000  0.118469591  0.000000000
     0.000000000  0.000000000 21.330738491     0.000000000  0.000000000  0.046880702

  length of vectors
     8.440984654  8.440984654 21.330738491     0.118469591  0.118469591  0.046880702



 k-points in units of 2pi/SCALE and weight: pymatgen v2020.8.13 with grid density = 
   0.00000000  0.00000000  0.00000000       0.250
   0.05923480  0.00000000  0.00000000       0.500
   0.05923480  0.05923480  0.00000000       0.250

 k-points in reciprocal lattice and weights: pymatgen v2020.8.13 with grid density = 
   0.00000000  0.00000000  0.00000000       0.250
   0.50000000  0.00000000  0.00000000       0.500
   0.50000000  0.50000000  0.00000000       0.250

 position of ions in fractional coordinates (direct lattice) 
   0.50000000  0.50000000  0.77063156
   0.50000000  0.50000000  0.82439528
   0.00000000  0.75000000  0.35160527
   0.25000000  0.00000000  0.35160527
   0.00000000  0.00000000  0.45053509
   0.25000000  0.75000000  0.45053509
   0.00000000  0.74993927  0.55008324
   0.25006073  0.00000000  0.55008324
   0.00000000  0.00000000  0.64874531
   0.24985833  0.75014167  0.64856955
   0.00000000  0.25000000  0.35160527
   0.25000000  0.50000000  0.35160527
   0.00000000  0.50000000  0.45053509
   0.25000000  0.25000000  0.45053509
   0.00000000  0.25006073  0.55008324
   0.25037838  0.50000000  0.55021952
   0.00000000  0.50000000  0.64861528
   0.24985833  0.24985833  0.64856955
   0.50000000  0.75000000  0.35160527
   0.75000000  0.00000000  0.35160527
   0.50000000  0.00000000  0.45053509
   0.75000000  0.75000000  0.45053509
   0.50000000  0.74962162  0.55021952
   0.74993927  0.00000000  0.55008324
   0.50000000  0.00000000  0.64861528
   0.75014167  0.75014167  0.64856955
   0.50000000  0.25000000  0.35160527
   0.75000000  0.50000000  0.35160527
   0.50000000  0.50000000  0.45053509
   0.75000000  0.25000000  0.45053509
   0.50000000  0.25037838  0.55021952
   0.74962162  0.50000000  0.55021952
   0.50000000  0.50000000  0.65061696
   0.75014167  0.24985833  0.64856955
   0.00000000  0.75000000  0.45053509
   0.25000000  0.00000000  0.45053509
   0.00000000  0.00000000  0.35160527
   0.25000000  0.75000000  0.35160527
   0.00000000  0.75021853  0.65097926
   0.24978147  0.00000000  0.65097926
   0.00000000  0.00000000  0.54980989
   0.24994577  0.75005423  0.54985911
   0.00000000  0.25000000  0.45053509
   0.25000000  0.50000000  0.45053509
   0.00000000  0.50000000  0.35160527
   0.25000000  0.25000000  0.35160527
   0.00000000  0.24978147  0.65097926
   0.24882271  0.50000000  0.65088287
   0.00000000  0.50000000  0.54976267
   0.24994577  0.24994577  0.54985911
   0.50000000  0.75000000  0.45053509
   0.75000000  0.00000000  0.45053509
   0.50000000  0.00000000  0.35160527
   0.75000000  0.75000000  0.35160527
   0.50000000  0.75117729  0.65088287
   0.75021853  0.00000000  0.65097926
   0.50000000  0.00000000  0.54976267
   0.75005423  0.75005423  0.54985911
   0.50000000  0.25000000  0.45053509
   0.75000000  0.50000000  0.45053509
   0.50000000  0.50000000  0.35160527
   0.75000000  0.25000000  0.35160527
   0.50000000  0.24882271  0.65088287
   0.75117729  0.50000000  0.65088287
   0.50000000  0.50000000  0.55023136
   0.75005423  0.24994577  0.54985911

 position of ions in cartesian coordinates  (Angst):
   4.22049233  4.22049233 16.43814023
   4.22049233  4.22049233 17.58496005
   0.00000000  6.33073849  7.50000000
   2.11024616  0.00000000  7.50000000
   0.00000000  0.00000000  9.61024616
   2.11024616  6.33073849  9.61024616
   0.00000000  6.33022585 11.73368172
   2.11075880  0.00000000 11.73368172
   0.00000000  0.00000000 13.83821654
   2.10905031  6.33193435 13.83446740
   0.00000000  2.11024616  7.50000000
   2.11024616  4.22049233  7.50000000
   0.00000000  4.22049233  9.61024616
   2.11024616  2.11024616  9.61024616
   0.00000000  2.11075880 11.73368172
   2.11344006  4.22049233 11.73658877
   0.00000000  4.22049233 13.83544293
   2.10905031  2.10905031 13.83446740
   4.22049233  6.33073849  7.50000000
   6.33073849  0.00000000  7.50000000
   4.22049233  0.00000000  9.61024616
   6.33073849  6.33073849  9.61024616
   4.22049233  6.32754460 11.73658877
   6.33022585  0.00000000 11.73368172
   4.22049233  0.00000000 13.83544293
   6.33193435  6.33193435 13.83446740
   4.22049233  2.11024616  7.50000000
   6.33073849  4.22049233  7.50000000
   4.22049233  4.22049233  9.61024616
   6.33073849  2.11024616  9.61024616
   4.22049233  2.11344006 11.73658877
   6.32754460  4.22049233 11.73658877
   4.22049233  4.22049233 13.87814023
   6.33193435  2.10905031 13.83446740
   0.00000000  6.33073849  9.61024616
   2.11024616  0.00000000  9.61024616
   0.00000000  0.00000000  7.50000000
   2.11024616  6.33073849  7.50000000
   0.00000000  6.33258312 13.88586825
   2.10840153  0.00000000 13.88586825
   0.00000000  0.00000000 11.72785099
   2.10978841  6.33119624 11.72890095
   0.00000000  2.11024616  9.61024616
   2.11024616  4.22049233  9.61024616
   0.00000000  4.22049233  7.50000000
   2.11024616  2.11024616  7.50000000
   0.00000000  2.10840153 13.88586825
   2.10030867  4.22049233 13.88381232
   0.00000000  4.22049233 11.72684365
   2.10978841  2.10978841 11.72890095
   4.22049233  6.33073849  9.61024616
   6.33073849  0.00000000  9.61024616
   4.22049233  0.00000000  7.50000000
   6.33073849  6.33073849  7.50000000
   4.22049233  6.34067598 13.88381232
   6.33258312  0.00000000 13.88586825
   4.22049233  0.00000000 11.72684365
   6.33119624  6.33119624 11.72890095
   4.22049233  2.11024616  9.61024616
   6.33073849  4.22049233  9.61024616
   4.22049233  4.22049233  7.50000000
   6.33073849  2.11024616  7.50000000
   4.22049233  2.10030867 13.88381232
   6.34067598  4.22049233 13.88381232
   4.22049233  4.22049233 11.73684118
   6.33119624  2.10978841 11.72890095



--------------------------------------------------------------------------------------------------------


 k-point   1 :   0.0000 0.0000 0.0000  plane waves:   50745
 k-point   2 :   0.5000 0.0000 0.0000  plane waves:   50798
 k-point   3 :   0.5000 0.5000 0.0000  plane waves:   50752

 maximum and minimum number of plane-waves per node :     12720    12632

 maximum number of plane-waves:     50798
 maximum index in each direction: 
   IXMAX=   16   IYMAX=   16   IZMAX=   42
   IXMIN=  -17   IYMIN=  -17   IZMIN=  -42


 parallel 3D FFT for wavefunctions:
    minimum data exchange during FFTs selected (reduces bandwidth)
 parallel 3D FFT for charge:
    minimum data exchange during FFTs selected (reduces bandwidth)


 total amount of memory used by VASP MPI-rank0    78528. kBytes
=======================================================================

   base      :      30000. kBytes
   nonl-proj :      29343. kBytes
   fftplans  :       3857. kBytes
   grid      :       5885. kBytes
   one-center:        137. kBytes
   wavefun   :       9306. kBytes

     INWAV:  cpu time      0.0000: real time      0.0000
 Broyden mixing: mesh for mixing (old mesh)
   NGX = 33   NGY = 33   NGZ = 85
  (NGX  =108   NGY  =108   NGZ  =256)
  gives a total of  92565 points

 initial charge density was supplied:
 charge density of overlapping atoms calculated
 number of electron     458.0000000 magnetization 
 keeping initial charge density in first step


--------------------------------------------------------------------------------------------------------


 Maximum index for augmentation-charges          334 (set IRDMAX)


--------------------------------------------------------------------------------------------------------


 First call to EWALD:  gamma=   0.154
 Maximum number of real-space cells 4x 4x 2
 Maximum number of reciprocal cells 2x 2x 5

    FEWALD:  cpu time      0.0074: real time      0.0074


--------------------------------------- Iteration      1(   1)  ---------------------------------------


    POTLOK:  cpu time      0.0485: real time      0.0490
    SETDIJ:  cpu time      0.1452: real time      0.1453
    TRIAL :  cpu time      5.3997: real time      5.4524
    CORREC:  cpu time      0.0015: real time      0.0014
    --------------------------------------------
      LOOP:  cpu time      5.5965: real time      5.6916

 eigenvalue-minimisations  :  2304
 total energy-change (2. order) : 0.4173191E+04  (-0.3066482E+05)
 number of electron     458.0000000 magnetization 
 augmentation part      458.0000000 magnetization 

 DIPCOR: dipole corrections for dipol
 direction  3 min pos     1,
 dipolmoment           0.000000      0.000000     -0.000337 electrons x Angstroem
 Tr[quadrupol]     -6318.707875

 energy correction for charged system         0.000000 eV
 dipol+quadrupol energy correction           -0.000000 eV
 added-field ion interaction          0.002777 eV  (added to PSCEN)


 Free energy of the ion-electron system (eV)
  ---------------------------------------------------
  alpha Z        PSCENC =       907.96688128
  Ewald energy   TEWEN  =    136871.40829455
  -Hartree energ DENC   =   -172970.93058538
  -exchange      EXHF   =         0.00000000
  -V(xc)+E(xc)   XCENC  =      1766.50528810
  PAW double counting   =     32340.89285313   -36127.75492224
  entropy T*S    EENTRO =        -0.02341479
  eigenvalues    EBANDS =     -6811.44873455
  atomic energy  EATOM  =     48196.57542979
  ---------------------------------------------------
  free energy    TOTEN  =      4173.19108990 eV

  energy without entropy =     4173.21450468  energy(sigma->0) =     4173.20279729


--------------------------------------------------------------------------------------------------------




--------------------------------------- Iteration      1(   2)  ---------------------------------------


    TRIAL :  cpu time      2.2453: real time      2.2455
    CORREC:  cpu time      0.0003: real time      0.0003
    --------------------------------------------
      LOOP:  cpu time      2.2518: real time      2.2606

 eigenvalue-minimisations  :  2304
 total energy-change (2. order) :-0.4288585E+04  (-0.4214773E+04)
 number of electron     458.0000000 magnetization 
 augmentation part      458.0000000 magnetization 

 DIPCOR: dipole corrections for dipol
 direction  3 min pos     1,
 dipolmoment           0.000000      0.000000     -0.000337 electrons x Angstroem
 Tr[quadrupol]     -6318.707875

 energy correction for charged system         0.000000 eV
 dipol+quadrupol energy correction           -0.000000 eV
 added-field ion interaction          0.002777 eV  (added to PSCEN)


 Free energy of the ion-electron system (eV)
  ---------------------------------------------------
  alpha Z        PSCENC =       907.96688128
  Ewald energy   TEWEN  =    136871.40829455
  -Hartree energ DENC   =   -172970.93058538
  -exchange      EXHF   =         0.00000000
  -V(xc)+E(xc)   XCENC  =      1766.50528810
  PAW double counting   =     32340.89285313   -36127.75492224
  entropy T*S    EENTRO =        -0.00000000
  eigenvalues    EBANDS =    -11100.05752994
  atomic energy  EATOM  =     48196.57542979
  ---------------------------------------------------
  free energy    TOTEN  =      -115.39429071 eV

  energy without entropy =     -115.39429071  energy(sigma->0) =     -115.39429071


--------------------------------------------------------------------------------------------------------




--------------------------------------- Iteration      1(   3)  ---------------------------------------


    TRIAL :  cpu time      2.3627: real time      2.3629
    CORREC:  cpu time      0.0003: real time      0.0003
    --------------------------------------------
      LOOP:  cpu time      2.3670: real time      2.3777

 eigenvalue-minimisations  :  2304
 total energy-change (2. order) :-0.3107473E+03  (-0.3087016E+03)
 number of electron     458.0000000 magnetization 
 augmentation part      458.0000000 magnetization 

 DIPCOR: dipole corrections for dipol
 direction  3 min pos     1,
 dipolmoment           0.000000      0.000000     -0.000337 electrons x Angstroem
 Tr[quadrupol]     -6318.707875

 energy correction for charged system         0.000000 eV
 dipol+quadrupol energy correction           -0.000000 eV
 added-field ion interaction          0.002777 eV  (added to PSCEN)


 Free energy of the ion-electron system (eV)
  ---------------------------------------------------
  alpha Z        PSCENC =       907.96688128
  Ewald energy   TEWEN  =    136871.40829455
  -Hartree energ DENC   =   -172970.93058538
  -exchange      EXHF   =         0.00000000
  -V(xc)+E(xc)   XCENC  =      1766.50528810
  PAW double counting   =     32340.89285313   -36127.75492224
  entropy T*S    EENTRO =        -0.00000000
  eigenvalues    EBANDS =    -11410.80486450
  atomic energy  EATOM  =     48196.57542979
  ---------------------------------------------------
  free energy    TOTEN  =      -426.14162527 eV

  energy without entropy =     -426.14162527  energy(sigma->0) =     -426.14162527


--------------------------------------------------------------------------------------------------------




--------------------------------------- Iteration      1(   4)  ---------------------------------------


    TRIAL :  cpu time      2.3590: real time      2.3593
    CORREC:  cpu time      0.0003: real time      0.0003
    --------------------------------------------
      LOOP:  cpu time      2.3730: real time      2.3738

 eigenvalue-minimisations  :  2368
 total energy-change (2. order) :-0.5967163E+01  (-0.5960237E+01)
 number of electron     458.0000000 magnetization 
 augmentation part      458.0000000 magnetization 

 DIPCOR: dipole corrections for dipol
 direction  3 min pos     1,
 dipolmoment           0.000000      0.000000     -0.000337 electrons x Angstroem
 Tr[quadrupol]     -6318.707875

 energy correction for charged system         0.000000 eV
 dipol+quadrupol energy correction           -0.000000 eV
 added-field ion interaction          0.002777 eV  (added to PSCEN)


 Free energy of the ion-electron system (eV)
  ---------------------------------------------------
  alpha Z        PSCENC =       907.96688128
  Ewald energy   TEWEN  =    136871.40829455
  -Hartree energ DENC   =   -172970.93058538
  -exchange      EXHF   =         0.00000000
  -V(xc)+E(xc)   XCENC  =      1766.50528810
  PAW double counting   =     32340.89285313   -36127.75492224
  entropy T*S    EENTRO =        -0.00000000
  eigenvalues    EBANDS =    -11416.77202719
  atomic energy  EATOM  =     48196.57542979
  ---------------------------------------------------
  free energy    TOTEN  =      -432.10878796 eV

  energy without entropy =     -432.10878796  energy(sigma->0) =     -432.10878796


--------------------------------------------------------------------------------------------------------




--------------------------------------- Iteration      1(   5)  ---------------------------------------


    TRIAL :  cpu time      2.3731: real time      2.3737
    CORREC:  cpu time      0.0003: real time      0.0003
    CHARGE:  cpu time      0.0759: real time      0.0762
    --------------------------------------------
      LOOP:  cpu time      2.4552: real time      2.4643

 eigenvalue-minimisations  :  2304
 total energy-change (2. order) :-0.7702870E-01  (-0.7702604E-01)
 number of electron     457.9999355 magnetization 
 augmentation part      159.7021187 magnetization 

 DIPCOR: dipole corrections for dipol
 direction  3 min pos     1,
 dipolmoment           0.000000      0.000000     -0.000337 electrons x Angstroem
 Tr[quadrupol]     -6318.707875

 energy correction for charged system         0.000000 eV
 dipol+quadrupol energy correction           -0.000000 eV
 added-field ion interaction          0.002777 eV  (added to PSCEN)


 Free energy of the ion-electron system (eV)
  ---------------------------------------------------
  alpha Z        PSCENC =       907.96688128
  Ewald energy   TEWEN  =    136871.40829455
  -Hartree energ DENC   =   -172970.93058538
  -exchange      EXHF   =         0.00000000
  -V(xc)+E(xc)   XCENC  =      1766.50528810
  PAW double counting   =     32340.89285313   -36127.75492224
  entropy T*S    EENTRO =        -0.00000000
  eigenvalues    EBANDS =    -11416.84905590
  atomic energy  EATOM  =     48196.57542979
  ---------------------------------------------------
  free energy    TOTEN  =      -432.18581667 eV

  energy without entropy =     -432.18581667  energy(sigma->0) =     -432.18581667


--------------------------------------------------------------------------------------------------------




--------------------------------------- Iteration      1(   6)  ---------------------------------------


    POTLOK:  cpu time      0.0307: real time      0.0307
    SETDIJ:  cpu time      0.1947: real time      0.1947
    TRIAL :  cpu time      0.6707: real time      0.6712
    CORREC:  cpu time      0.5276: real time      0.5280
    CHARGE:  cpu time      0.0550: real time      0.0550
    --------------------------------------------
      LOOP:  cpu time      1.4923: real time      1.4935

 eigenvalue-minimisations  :     0
 total energy-change (2. order) : 0.1727714E+03  (-0.9558639E+02)
 number of electron     457.9999248 magnetization 
 augmentation part      156.7870817 magnetization 

 DIPCOR: dipole corrections for dipol
 direction  3 min pos     1,
 dipolmoment           0.000000      0.000000      0.179323 electrons x Angstroem
 Tr[quadrupol]     -6356.097625

 energy correction for charged system         0.000000 eV
 dipol+quadrupol energy correction           -0.001914 eV
 added-field ion interaction         -1.477411 eV  (added to PSCEN)


 Free energy of the ion-electron system (eV)
  ---------------------------------------------------
  alpha Z        PSCENC =       904.24793471
  Ewald energy   TEWEN  =    136871.40829455
  -Hartree energ DENC   =   -176853.95730206
  -exchange      EXHF   =         0.00000000
  -V(xc)+E(xc)   XCENC  =      1890.19188753
  PAW double counting   =     37143.55144437   -40889.66174611
  entropy T*S    EENTRO =        -0.00000000
  eigenvalues    EBANDS =     -7521.77033018
  atomic energy  EATOM  =     48196.57542979
  ---------------------------------------------------
  free energy    TOTEN  =      -259.41438740 eV

  energy without entropy =     -259.41438740  energy(sigma->0) =     -259.41438740


--------------------------------------------------------------------------------------------------------




--------------------------------------- Iteration      1(   7)  ---------------------------------------


    POTLOK:  cpu time      0.0307: real time      0.0307
    SETDIJ:  cpu time      0.1876: real time      0.1876
    TRIAL :  cpu time      0.6016: real time      0.6016
    CORREC:  cpu time      0.5143: real time      0.5144
    CHARGE:  cpu time      0.0548: real time      0.0548
    --------------------------------------------
      LOOP:  cpu time      1.3935: real time      1.4036

 eigenvalue-minimisations  :     0
 total energy-change (2. order) :-0.9595955E+02  (-0.6721403E+01)
 number of electron     457.9999239 magnetization 
 augmentation part      154.9305681 magnetization 

 DIPCOR: dipole corrections for dipol
 direction  3 min pos     1,
 dipolmoment           0.000000      0.000000      0.158555 electrons x Angstroem
 Tr[quadrupol]     -6361.139526

 energy correction for charged system         0.000000 eV
 dipol+quadrupol energy correction           -0.001497 eV
 added-field ion interaction         -1.306303 eV  (added to PSCEN)


 Free energy of the ion-electron system (eV)
  ---------------------------------------------------
  alpha Z        PSCENC =       906.22359478
  Ewald energy   TEWEN  =    136871.40829455
  -Hartree energ DENC   =   -175018.85226084
  -exchange      EXHF   =         0.00000000
  -V(xc)+E(xc)   XCENC  =      1823.43601093
  PAW double counting   =     36032.53912215   -39848.23014874
  entropy T*S    EENTRO =        -0.00000000
  eigenvalues    EBANDS =     -9318.47398020
  atomic energy  EATOM  =     48196.57542979
  ---------------------------------------------------
  free energy    TOTEN  =      -355.37393759 eV

  energy without entropy =     -355.37393759  energy(sigma->0) =     -355.37393759


--------------------------------------------------------------------------------------------------------




--------------------------------------- Iteration      1(   8)  ---------------------------------------


    POTLOK:  cpu time      0.0299: real time      0.0299
    SETDIJ:  cpu time      0.1878: real time      0.1878
    TRIAL :  cpu time      0.5996: real time      0.5996
    CORREC:  cpu time      0.5164: real time      0.5164
    CHARGE:  cpu time      0.0552: real time      0.0552
    --------------------------------------------
      LOOP:  cpu time      1.4037: real time      1.4041

 eigenvalue-minimisations  :     0
 total energy-change (2. order) :-0.6736326E+01  (-0.4167052E+01)
 number of electron     457.9999222 magnetization 
 augmentation part      155.0371341 magnetization 

 DIPCOR: dipole corrections for dipol
 direction  3 min pos     1,
 dipolmoment           0.000000      0.000000      0.101404 electrons x Angstroem
 Tr[quadrupol]     -6359.490205

 energy correction for charged system         0.000000 eV
 dipol+quadrupol energy correction           -0.000612 eV
 added-field ion interaction         -0.835450 eV  (added to PSCEN)


 Free energy of the ion-electron system (eV)
  ---------------------------------------------------
  alpha Z        PSCENC =       906.80141435
  Ewald energy   TEWEN  =    136871.40829455
  -Hartree energ DENC   =   -174910.69247006
  -exchange      EXHF   =         0.00000000
  -V(xc)+E(xc)   XCENC  =      1814.04099499
  PAW double counting   =     35920.36160118   -39666.66414238
  entropy T*S    EENTRO =        -0.00000000
  eigenvalues    EBANDS =     -9493.94138572
  atomic energy  EATOM  =     48196.57542979
  ---------------------------------------------------
  free energy    TOTEN  =      -362.11026330 eV

  energy without entropy =     -362.11026330  energy(sigma->0) =     -362.11026330


--------------------------------------------------------------------------------------------------------




--------------------------------------- Iteration      1(   9)  ---------------------------------------


    POTLOK:  cpu time      0.0301: real time      0.0301
    SETDIJ:  cpu time      0.1879: real time      0.1879
    TRIAL :  cpu time      0.5997: real time      0.5997
    CORREC:  cpu time      0.5161: real time      0.5161
    CHARGE:  cpu time      0.0552: real time      0.0552
    --------------------------------------------
      LOOP:  cpu time      1.3929: real time      1.4036

 eigenvalue-minimisations  :     0
 total energy-change (2. order) :-0.4087357E+01  (-0.1706850E+01)
 number of electron     457.9999221 magnetization 
 augmentation part      155.0558075 magnetization 

 DIPCOR: dipole corrections for dipol
 direction  3 min pos     1,
 dipolmoment           0.000000      0.000000      0.123501 electrons x Angstroem
 Tr[quadrupol]     -6352.481084

 energy correction for charged system         0.000000 eV
 dipol+quadrupol energy correction           -0.000908 eV
 added-field ion interaction         -1.017500 eV  (added to PSCEN)


 Free energy of the ion-electron system (eV)
  ---------------------------------------------------
  alpha Z        PSCENC =       907.27801777
  Ewald energy   TEWEN  =    136871.40829455
  -Hartree energ DENC   =   -174782.92072579
  -exchange      EXHF   =         0.00000000
  -V(xc)+E(xc)   XCENC  =      1813.49892323
  PAW double counting   =     35835.15103181   -39616.40441387
  entropy T*S    EENTRO =        -0.00000000
  eigenvalues    EBANDS =     -9590.78417784
  atomic energy  EATOM  =     48196.57542979
  ---------------------------------------------------
  free energy    TOTEN  =      -366.19762035 eV

  energy without entropy =     -366.19762035  energy(sigma->0) =     -366.19762035


--------------------------------------------------------------------------------------------------------




--------------------------------------- Iteration      1(  10)  ---------------------------------------


    POTLOK:  cpu time      0.0295: real time      0.0295
    SETDIJ:  cpu time      0.1888: real time      0.1888
    TRIAL :  cpu time      0.5997: real time      0.5997
    CORREC:  cpu time      0.5137: real time      0.5137
    CHARGE:  cpu time      0.0548: real time      0.0548
    --------------------------------------------
      LOOP:  cpu time      1.4011: real time      1.4014

 eigenvalue-minimisations  :     0
 total energy-change (2. order) :-0.1719364E+01  (-0.5885403E+00)
 number of electron     457.9999228 magnetization 
 augmentation part      155.0151249 magnetization 

 DIPCOR: dipole corrections for dipol
 direction  3 min pos     1,
 dipolmoment           0.000000      0.000000      0.152982 electrons x Angstroem
 Tr[quadrupol]     -6351.085352

 energy correction for charged system         0.000000 eV
 dipol+quadrupol energy correction           -0.001393 eV
 added-field ion interaction         -1.260392 eV  (added to PSCEN)


 Free energy of the ion-electron system (eV)
  ---------------------------------------------------
  alpha Z        PSCENC =       906.99370244
  Ewald energy   TEWEN  =    136871.40829455
  -Hartree energ DENC   =   -174605.74235470
  -exchange      EXHF   =         0.00000000
  -V(xc)+E(xc)   XCENC  =      1811.79891763
  PAW double counting   =     35721.03017328   -39510.52514310
  entropy T*S    EENTRO =        -0.00000000
  eigenvalues    EBANDS =     -9759.45600454
  atomic energy  EATOM  =     48196.57542979
  ---------------------------------------------------
  free energy    TOTEN  =      -367.91698465 eV

  energy without entropy =     -367.91698465  energy(sigma->0) =     -367.91698465


--------------------------------------------------------------------------------------------------------




--------------------------------------- Iteration      1(  11)  ---------------------------------------


    POTLOK:  cpu time      0.0294: real time      0.0294
    SETDIJ:  cpu time      0.1880: real time      0.1881
    TRIAL :  cpu time      0.5995: real time      0.5996
    CORREC:  cpu time      0.5145: real time      0.5145
    CHARGE:  cpu time      0.0545: real time      0.0546
    --------------------------------------------
      LOOP:  cpu time      1.3903: real time      1.4007

 eigenvalue-minimisations  :     0
 total energy-change (2. order) :-0.5898879E+00  (-0.2112733E+00)
 number of electron     457.9999232 magnetization 
 augmentation part      155.1068624 magnetization 

 DIPCOR: dipole corrections for dipol
 direction  3 min pos     1,
 dipolmoment           0.000000      0.000000      0.142594 electrons x Angstroem
 Tr[quadrupol]     -6351.831620

 energy correction for charged system         0.000000 eV
 dipol+quadrupol energy correction           -0.001210 eV
 added-field ion interaction         -1.174807 eV  (added to PSCEN)


 Free energy of the ion-electron system (eV)
  ---------------------------------------------------
  alpha Z        PSCENC =       906.74150981
  Ewald energy   TEWEN  =    136871.40829455
  -Hartree energ DENC   =   -174537.42920209
  -exchange      EXHF   =         0.00000000
  -V(xc)+E(xc)   XCENC  =      1810.77823214
  PAW double counting   =     35659.32190187   -39441.02883061
  entropy T*S    EENTRO =        -0.00000000
  eigenvalues    EBANDS =     -9834.87420804
  atomic energy  EATOM  =     48196.57542979
  ---------------------------------------------------
  free energy    TOTEN  =      -368.50687258 eV

  energy without entropy =     -368.50687258  energy(sigma->0) =     -368.50687258


--------------------------------------------------------------------------------------------------------




--------------------------------------- Iteration      1(  12)  ---------------------------------------


    POTLOK:  cpu time      0.0289: real time      0.0289
    SETDIJ:  cpu time      0.1896: real time      0.1900
    TRIAL :  cpu time      0.6000: real time      0.6000
    CORREC:  cpu time      0.5146: real time      0.5147
    CHARGE:  cpu time      0.0550: real time      0.0550
    --------------------------------------------
      LOOP:  cpu time      1.3922: real time      1.4027

 eigenvalue-minimisations  :     0
 total energy-change (2. order) :-0.2112651E+00  (-0.7245395E-01)
 number of electron     457.9999233 magnetization 
 augmentation part      155.2085873 magnetization 

 DIPCOR: dipole corrections for dipol
 direction  3 min pos     1,
 dipolmoment           0.000000      0.000000      0.131666 electrons x Angstroem
 Tr[quadrupol]     -6352.520679

 energy correction for charged system         0.000000 eV
 dipol+quadrupol energy correction           -0.001032 eV
 added-field ion interaction         -1.084775 eV  (added to PSCEN)


 Free energy of the ion-electron system (eV)
  ---------------------------------------------------
  alpha Z        PSCENC =       906.78737967
  Ewald energy   TEWEN  =    136871.40829455
  -Hartree energ DENC   =   -174559.38276566
  -exchange      EXHF   =         0.00000000
  -V(xc)+E(xc)   XCENC  =      1811.01789348
  PAW double counting   =     35645.82254338   -39425.71028081
  entropy T*S    EENTRO =        -0.00000000
  eigenvalues    EBANDS =     -9815.23663205
  atomic energy  EATOM  =     48196.57542979
  ---------------------------------------------------
  free energy    TOTEN  =      -368.71813766 eV

  energy without entropy =     -368.71813766  energy(sigma->0) =     -368.71813766


--------------------------------------------------------------------------------------------------------




--------------------------------------- Iteration      1(  13)  ---------------------------------------


    POTLOK:  cpu time      0.0296: real time      0.0296
    SETDIJ:  cpu time      0.1879: real time      0.1879
    TRIAL :  cpu time      0.5993: real time      0.5994
    CORREC:  cpu time      0.5137: real time      0.5137
    CHARGE:  cpu time      0.0548: real time      0.0548
    --------------------------------------------
      LOOP:  cpu time      1.3911: real time      1.4004

 eigenvalue-minimisations  :     0
 total energy-change (2. order) :-0.7247715E-01  (-0.3163540E-01)
 number of electron     457.9999233 magnetization 
 augmentation part      155.2430392 magnetization 

 DIPCOR: dipole corrections for dipol
 direction  3 min pos     1,
 dipolmoment           0.000000      0.000000      0.126862 electrons x Angstroem
 Tr[quadrupol]     -6352.931238

 energy correction for charged system         0.000000 eV
 dipol+quadrupol energy correction           -0.000958 eV
 added-field ion interaction         -1.045196 eV  (added to PSCEN)


 Free energy of the ion-electron system (eV)
  ---------------------------------------------------
  alpha Z        PSCENC =       906.88238268
  Ewald energy   TEWEN  =    136871.40829455
  -Hartree energ DENC   =   -174588.31955877
  -exchange      EXHF   =         0.00000000
  -V(xc)+E(xc)   XCENC  =      1811.31879456
  PAW double counting   =     35645.77708646   -39428.50186716
  entropy T*S    EENTRO =        -0.00000000
  eigenvalues    EBANDS =     -9783.93117692
  atomic energy  EATOM  =     48196.57542979
  ---------------------------------------------------
  free energy    TOTEN  =      -368.79061481 eV

  energy without entropy =     -368.79061481  energy(sigma->0) =     -368.79061481


--------------------------------------------------------------------------------------------------------




--------------------------------------- Iteration      1(  14)  ---------------------------------------


    POTLOK:  cpu time      0.0304: real time      0.0304
    SETDIJ:  cpu time      0.1875: real time      0.1875
    TRIAL :  cpu time      0.5995: real time      0.5995
    CORREC:  cpu time      0.5150: real time      0.5151
    CHARGE:  cpu time      0.0550: real time      0.0550
    --------------------------------------------
      LOOP:  cpu time      1.3916: real time      1.4017

 eigenvalue-minimisations  :     0
 total energy-change (2. order) :-0.3166681E-01  (-0.1486389E-01)
 number of electron     457.9999233 magnetization 
 augmentation part      155.2285098 magnetization 

 DIPCOR: dipole corrections for dipol
 direction  3 min pos     1,
 dipolmoment           0.000000      0.000000      0.125615 electrons x Angstroem
 Tr[quadrupol]     -6353.252709

 energy correction for charged system         0.000000 eV
 dipol+quadrupol energy correction           -0.000939 eV
 added-field ion interaction         -1.034921 eV  (added to PSCEN)


 Free energy of the ion-electron system (eV)
  ---------------------------------------------------
  alpha Z        PSCENC =       906.92367955
  Ewald energy   TEWEN  =    136871.40829455
  -Hartree energ DENC   =   -174601.59080238
  -exchange      EXHF   =         0.00000000
  -V(xc)+E(xc)   XCENC  =      1811.33108341
  PAW double counting   =     35646.29315004   -39430.57005276
  entropy T*S    EENTRO =        -0.00000000
  eigenvalues    EBANDS =     -9769.19306383
  atomic energy  EATOM  =     48196.57542979
  ---------------------------------------------------
  free energy    TOTEN  =      -368.82228162 eV

  energy without entropy =     -368.82228162  energy(sigma->0) =     -368.82228162


--------------------------------------------------------------------------------------------------------




--------------------------------------- Iteration      1(  15)  ---------------------------------------


    POTLOK:  cpu time      0.0290: real time      0.0290
    SETDIJ:  cpu time      0.1890: real time      0.1890
    TRIAL :  cpu time      0.5985: real time      0.5986
    CORREC:  cpu time      0.5140: real time      0.5140
[...]
    273       7.5864      0.00000
    274       7.5864      0.00000
    275       7.6891      0.00000
    276       7.8000      0.00000
    277       8.0072      0.00000
    278       8.0073      0.00000
    279       8.0153      0.00000
    280       8.1680      0.00000
    281       8.1683      0.00000
    282       8.1753      0.00000
    283       8.1787      0.00000
    284       8.1914      0.00000
    285       8.1956      0.00000
    286       8.2011      0.00000
    287       8.2012      0.00000
    288       8.4642      0.00000
    289       8.4649      0.00000
    290       8.4666      0.00000
    291       8.6254      0.00000
    292       8.6339      0.00000
    293       8.6520      0.00000
    294       8.6873      0.00000
    295       8.7278      0.00000
    296       8.7432      0.00000
    297       8.7613      0.00000
    298       8.7704      0.00000
    299       8.7754      0.00000
    300       8.9504      0.00000
    301       9.0238      0.00000
    302       9.0314      0.00000
    303       9.0886      0.00000
    304       9.0894      0.00000
    305       9.3673      0.00000
    306       9.4571      0.00000
    307       9.5199      0.00000
    308       9.5654      0.00000
    309       9.6538      0.00000
    310       9.6714      0.00000
    311       9.6810      0.00000
    312       9.8849      0.00000
    313       9.9640      0.00000
    314      10.0474      0.00000
    315      10.0534      0.00000
    316      10.0593      0.00000
    317      10.4509      0.00000
    318      10.4986      0.00000
    319      10.5944      0.00000
    320      10.6006      0.00000


--------------------------------------------------------------------------------------------------------


 soft charge-density along one line, spin component           1
         0         1         2         3         4         5         6         7         8         9
 total charge-density along one line

 pseudopotential strength for first ion, spin component:           1
 10.254  13.638   0.000   0.037   0.000  -0.000  -0.106  -0.000
 13.638  18.137   0.000   0.049   0.000  -0.000  -0.140  -0.000
  0.000   0.000  -4.281  -0.000   0.000   8.370   0.000   0.000
  0.037   0.049  -0.000  -4.338  -0.000   0.000   8.464   0.000
  0.000   0.000   0.000  -0.000  -4.281   0.000   0.000   8.370
 -0.000  -0.000   8.370   0.000   0.000 -18.495  -0.000  -0.000
 -0.106  -0.140   0.000   8.464   0.000  -0.000 -18.650  -0.000
 -0.000  -0.000   0.000   0.000   8.370  -0.000  -0.000 -18.495
 total augmentation occupancy for first ion, spin component:           1
  7.774  -3.550   0.000   2.036   0.000   0.000   0.382   0.000
 -3.550   1.986  -0.000  -1.558   0.000   0.000  -0.234  -0.000
  0.000  -0.000   0.840  -0.000   0.000   0.063  -0.000   0.000
  2.036  -1.558  -0.000   2.237   0.000   0.000   0.215   0.000
  0.000   0.000   0.000   0.000   0.840  -0.000   0.000   0.063
  0.000   0.000   0.063   0.000  -0.000   0.005   0.000   0.000
  0.382  -0.234  -0.000   0.215   0.000   0.000   0.029   0.000
  0.000  -0.000   0.000   0.000   0.063   0.000   0.000   0.005


------------------------ aborting loop because EDIFF is reached ----------------------------------------


    FORLOC:  cpu time      0.0038: real time      0.0038
    FORNL :  cpu time      0.4187: real time      0.4188
    STRESS:  cpu time      1.3353: real time      1.3355
    FORCOR:  cpu time      0.0268: real time      0.0268
    OFIELD:  cpu time      0.0001: real time      0.0001
    FORVDW:  cpu time      7.9189: real time      7.9409

  FORCE on cell =-STRESS in cart. coord.  units (eV):
  Direction    XX          YY          ZZ          XY          YZ          ZX
  --------------------------------------------------------------------------------------
  Alpha Z   907.96410   907.96410   907.96410
  Ewald  157373.73553157373.73553************     0.00000     0.00000    -0.00000
  Hartree167799.41440167799.41440************    -0.00000    -0.00000    -0.00000
  E(xc)   -2509.86073 -2509.86073 -2516.37547    -0.00000    -0.00000     0.00000
  Local  ************************334756.24469    -0.00000     0.00000    -0.00000
  n-local -2812.79855 -2813.58008 -2844.61690    -0.00000    -0.00000     0.00000
  augment  1052.76449  1052.76449  1042.63955     0.00000    -0.00000     0.00000
  Kinetic  7500.48363  7502.99113  7523.25636     0.00002     0.00000    -0.00001
  Fock        0.00000     0.00000     0.00000     0.00000     0.00000     0.00000
  vdW       -21.65790   -21.65792   -16.52874     0.00000     0.00000     0.00000
  -------------------------------------------------------------------------------------
  Total     -26.10089   -26.10089    -1.99857     0.00000     0.00000     0.00000
  in kB     -27.51527   -27.51527    -2.10687     0.00000     0.00000     0.00000
  external pressure =      -19.05 kB  Pullay stress =        0.00 kB


 VOLUME and BASIS-vectors are now :
 -----------------------------------------------------------------------------
  energy-cutoff  :      600.00
  volume of cell :     1519.82
      direct lattice vectors                 reciprocal lattice vectors
     8.440984654  0.000000000  0.000000000     0.118469591  0.000000000  0.000000000
     0.000000000  8.440984654  0.000000000     0.000000000  0.118469591  0.000000000
     0.000000000  0.000000000 21.330738491     0.000000000  0.000000000  0.046880702

  length of vectors
     8.440984654  8.440984654 21.330738491     0.118469591  0.118469591  0.046880702


 FORCES acting on ions:
    Electron-Ion                     Ewald-Force                    Non-Local-Force
 -----------------------------------------------------------------------------------------------
   0.108E-12 0.431E-12 -.811E+03   0.444E-14 0.311E-14 0.784E+03   0.000E+00 0.290E-23 0.268E+02
   0.418E-12 0.105E-11 -.141E+04   -.111E-14 -.733E-14 0.147E+04   0.000E+00 0.993E-23 -.595E+02
   -.504E-13 -.117E+00 0.208E+04   0.560E-13 0.117E+00 -.207E+04   0.000E+00 -.220E-03 -.716E+01
   0.117E+00 -.879E-12 0.208E+04   -.117E+00 0.671E-13 -.207E+04   0.220E-03 -.132E-22 -.716E+01
   -.566E-13 -.232E-12 0.712E+03   -.150E-10 0.150E-10 -.713E+03   0.000E+00 0.000E+00 0.502E+00
   0.396E+00 -.396E+00 0.713E+03   -.392E+00 0.392E+00 -.714E+03   -.254E-02 0.254E-02 0.528E+00
   -.666E-13 -.262E+01 -.643E+03   0.157E-11 0.260E+01 0.643E+03   -.290E-23 0.152E-01 -.155E+00
   0.262E+01 -.468E-12 -.643E+03   -.260E+01 -.151E-11 0.643E+03   -.152E-01 0.000E+00 -.155E+00
   -.382E-13 0.404E-13 -.200E+04   0.444E-12 -.416E-12 0.200E+04   0.000E+00 -.265E-22 0.608E+01
   0.166E+02 -.166E+02 -.198E+04   -.167E+02 0.167E+02 0.198E+04   0.886E-01 -.886E-01 0.617E+01
   -.627E-13 0.117E+00 0.208E+04   -.277E-12 -.117E+00 -.207E+04   0.105E-22 0.220E-03 -.716E+01
   0.109E+00 -.162E-12 0.208E+04   -.107E+00 0.131E-10 -.207E+04   -.170E-02 0.165E-22 -.716E+01
   -.587E-13 0.717E-12 0.713E+03   -.165E-10 0.000E+00 -.714E+03   0.000E+00 -.132E-22 0.465E+00
   0.396E+00 0.396E+00 0.713E+03   -.392E+00 -.392E+00 -.714E+03   -.254E-02 -.254E-02 0.528E+00
   -.511E-13 0.262E+01 -.643E+03   0.304E-11 -.260E+01 0.643E+03   -.529E-22 -.152E-01 -.155E+00
   0.359E+01 0.625E-12 -.637E+03   -.352E+01 0.178E-14 0.637E+03   -.773E-01 -.529E-22 -.267E+00
   -.168E-13 0.923E-12 -.199E+04   -.355E-13 -.995E-13 0.198E+04   0.000E+00 0.000E+00 0.609E+01
   0.166E+02 0.166E+02 -.198E+04   -.167E+02 -.167E+02 0.198E+04   0.886E-01 0.886E-01 0.617E+01
   0.886E-12 -.109E+00 0.208E+04   -.129E-10 0.107E+00 -.207E+04   0.364E-22 0.170E-02 -.716E+01
   -.117E+00 -.879E-12 0.208E+04   0.117E+00 0.471E-13 -.207E+04   -.220E-03 0.165E-23 -.716E+01
   0.819E-12 -.882E-12 0.713E+03   0.145E-11 0.150E-10 -.714E+03   0.662E-23 -.132E-22 0.465E+00
   -.396E+00 -.396E+00 0.713E+03   0.392E+00 0.392E+00 -.714E+03   0.254E-02 0.254E-02 0.528E+00
   0.826E-12 -.359E+01 -.637E+03   -.141E-11 0.352E+01 0.637E+03   0.000E+00 0.773E-01 -.267E+00
   -.262E+01 -.461E-12 -.643E+03   0.260E+01 -.156E-11 0.643E+03   0.152E-01 0.265E-22 -.155E+00
   0.889E-12 -.212E-11 -.199E+04   0.782E-13 -.355E-14 0.198E+04   0.662E-23 -.662E-23 0.609E+01
   -.166E+02 -.166E+02 -.198E+04   0.167E+02 0.167E+02 0.198E+04   -.886E-01 -.886E-01 0.617E+01
   0.895E-12 0.109E+00 0.208E+04   -.131E-10 -.107E+00 -.207E+04   -.132E-22 -.170E-02 -.716E+01
   -.109E+00 -.646E-12 0.208E+04   0.107E+00 0.131E-10 -.207E+04   0.170E-02 0.000E+00 -.716E+01
   0.869E-12 0.261E-11 0.713E+03   -.782E-13 0.355E-14 -.714E+03   -.265E-22 0.000E+00 0.601E+00
   -.396E+00 0.396E+00 0.713E+03   0.392E+00 -.392E+00 -.714E+03   0.254E-02 -.254E-02 0.528E+00
   0.801E-12 0.359E+01 -.637E+03   -.284E-13 -.352E+01 0.637E+03   0.000E+00 -.773E-01 -.267E+00
   -.359E+01 -.207E-11 -.637E+03   0.352E+01 0.000E+00 0.637E+03   0.773E-01 -.529E-22 -.267E+00
   0.920E-12 0.157E-11 -.192E+04   -.426E-13 -.391E-13 0.192E+04   -.132E-22 0.000E+00 0.461E+01
   -.166E+02 0.166E+02 -.198E+04   0.167E+02 -.167E+02 0.198E+04   -.886E-01 0.886E-01 0.617E+01
   -.762E-13 -.360E+00 0.534E+03   0.409E-13 0.355E+00 -.534E+03   0.265E-22 0.685E-02 -.911E-01
   0.360E+00 -.478E-12 0.534E+03   -.355E+00 0.391E-13 -.534E+03   -.685E-02 0.397E-22 -.911E-01
   -.706E-13 0.626E-12 0.156E+04   0.853E-11 -.844E-11 -.156E+04   0.000E+00 0.000E+00 0.341E+01
   0.843E-01 -.843E-01 0.156E+04   -.835E-01 0.835E-01 -.156E+04   -.104E-02 0.104E-02 0.341E+01
   -.723E-13 -.690E+01 -.152E+04   -.871E-12 0.684E+01 0.153E+04   -.331E-22 0.540E-01 -.495E+01
   0.690E+01 0.404E-13 -.152E+04   -.684E+01 0.881E-12 0.153E+04   -.540E-01 0.265E-22 -.495E+01
   -.810E-13 0.254E-12 -.479E+03   -.853E-13 0.639E-13 0.478E+03   0.000E+00 -.869E-23 0.258E+00
   0.230E+01 -.230E+01 -.474E+03   -.229E+01 0.229E+01 0.474E+03   -.690E-02 0.690E-02 0.326E+00
   -.669E-13 0.360E+00 0.534E+03   0.142E-13 -.355E+00 -.534E+03   0.794E-22 -.685E-02 -.911E-01
   0.310E+00 0.101E-12 0.535E+03   -.336E+00 -.764E-11 -.534E+03   0.357E-01 -.331E-23 -.111E+00
   -.703E-13 0.123E-11 0.156E+04   0.845E-11 -.796E-12 -.156E+04   0.000E+00 0.000E+00 0.341E+01
   0.843E-01 0.843E-01 0.156E+04   -.835E-01 -.835E-01 -.156E+04   -.104E-02 -.104E-02 0.341E+01
   -.514E-13 0.690E+01 -.152E+04   -.774E-12 -.684E+01 0.153E+04   0.000E+00 -.540E-01 -.495E+01
   0.210E+02 0.774E-12 -.149E+04   -.207E+02 0.810E-11 0.150E+04   -.267E+00 0.265E-22 -.494E+01
   -.670E-13 0.835E-12 -.474E+03   -.741E-11 0.711E-14 0.474E+03   -.662E-23 0.000E+00 0.283E+00
   0.230E+01 0.230E+01 -.474E+03   -.229E+01 -.229E+01 0.474E+03   -.690E-02 -.690E-02 0.326E+00
   0.342E-12 -.310E+00 0.535E+03   0.764E-11 0.336E+00 -.534E+03   0.000E+00 -.357E-01 -.111E+00
   -.360E+00 -.451E-12 0.534E+03   0.355E+00 0.142E-13 -.534E+03   0.685E-02 0.960E-22 -.911E-01
   0.355E-12 0.156E-11 0.156E+04   0.845E-12 -.846E-11 -.156E+04   -.331E-23 -.529E-22 0.341E+01
   -.843E-01 -.843E-01 0.156E+04   0.835E-01 0.835E-01 -.156E+04   0.104E-02 0.104E-02 0.341E+01
   0.368E-12 -.210E+02 -.149E+04   -.816E-11 0.207E+02 0.150E+04   0.105E-22 0.267E+00 -.494E+01
   -.690E+01 0.135E-13 -.152E+04   0.684E+01 0.924E-12 0.153E+04   0.540E-01 0.265E-22 -.495E+01
   0.319E-12 0.263E-12 -.474E+03   -.711E-14 0.738E-11 0.474E+03   -.662E-23 0.000E+00 0.283E+00
   -.230E+01 -.230E+01 -.474E+03   0.229E+01 0.229E+01 0.474E+03   0.690E-02 0.690E-02 0.326E+00
   0.327E-12 0.310E+00 0.535E+03   0.763E-11 -.336E+00 -.534E+03   0.496E-23 0.357E-01 -.111E+00
   -.310E+00 0.103E-11 0.535E+03   0.336E+00 -.769E-11 -.534E+03   -.357E-01 0.000E+00 -.111E+00
   0.339E-12 0.237E-11 0.156E+04   0.824E-12 -.838E-12 -.156E+04   0.000E+00 0.000E+00 0.340E+01
   -.843E-01 0.843E-01 0.156E+04   0.835E-01 -.835E-01 -.156E+04   0.104E-02 -.104E-02 0.341E+01
   0.336E-12 0.210E+02 -.149E+04   -.820E-11 -.207E+02 0.150E+04   0.662E-23 -.267E+00 -.494E+01
   -.210E+02 -.185E-11 -.149E+04   0.207E+02 0.819E-11 0.150E+04   0.267E+00 0.529E-22 -.494E+01
   0.293E-12 0.121E-11 -.475E+03   -.497E-13 0.426E-13 0.475E+03   0.000E+00 -.132E-22 -.187E+00
   -.230E+01 0.230E+01 -.474E+03   0.229E+01 -.229E+01 0.474E+03   0.690E-02 -.690E-02 0.326E+00
 -----------------------------------------------------------------------------------------------
   0.261E-10 0.189E-10 0.512E+02   -.311E-14 -.131E-12 0.557E-11   -.156E-16 0.173E-17 -.512E+02


 POSITION                                       TOTAL-FORCE (eV/Angst)
 -----------------------------------------------------------------------------------
      4.22049      4.22049     16.43814         0.000000      0.000000     -0.059776
      4.22049      4.22049     17.58496         0.000000      0.000000     -0.022990
      0.00000      6.33074      7.50000         0.000000      0.000055      0.338971
      2.11025      0.00000      7.50000        -0.000055      0.000000      0.338971
      0.00000      0.00000      9.61025         0.000000      0.000000      0.069920
      2.11025      6.33074      9.61025         0.001513     -0.001513      0.072156
      0.00000      6.33023     11.73368         0.000000      0.000129     -0.003168
      2.11076      0.00000     11.73368        -0.000129      0.000000     -0.003168
      0.00000      0.00000     13.83822         0.000000      0.000000     -0.001106
      2.10905      6.33193     13.83447         0.000236     -0.000236      0.002983
      0.00000      2.11025      7.50000         0.000000     -0.000055      0.338971
      2.11025      4.22049      7.50000         0.000638      0.000000      0.339014
      0.00000      4.22049      9.61025         0.000000      0.000000      0.078747
      2.11025      2.11025      9.61025         0.001513      0.001513      0.072156
      0.00000      2.11076     11.73368         0.000000     -0.000129     -0.003168
      2.11344      4.22049     11.73659        -0.004296      0.000000      0.003700
      0.00000      4.22049     13.83544         0.000000      0.000000     -0.000578
      2.10905      2.10905     13.83447         0.000236      0.000236      0.002983
      4.22049      6.33074      7.50000         0.000000     -0.000638      0.339014
      6.33074      0.00000      7.50000         0.000055      0.000000      0.338971
      4.22049      0.00000      9.61025         0.000000      0.000000      0.078747
      6.33074      6.33074      9.61025        -0.001513     -0.001513      0.072156
      4.22049      6.32754     11.73659         0.000000      0.004296      0.003700
      6.33023      0.00000     11.73368         0.000129      0.000000     -0.003168
      4.22049      0.00000     13.83544         0.000000      0.000000     -0.000578
      6.33193      6.33193     13.83447        -0.000236     -0.000236      0.002983
      4.22049      2.11025      7.50000         0.000000      0.000638      0.339014
      6.33074      4.22049      7.50000        -0.000638      0.000000      0.339014
      4.22049      4.22049      9.61025         0.000000      0.000000      0.083607
      6.33074      2.11025      9.61025        -0.001513      0.001513      0.072156
      4.22049      2.11344     11.73659         0.000000     -0.004296      0.003700
      6.32754      4.22049     11.73659         0.004296      0.000000      0.003700
      4.22049      4.22049     13.87814         0.000000      0.000000      0.066150
      6.33193      2.10905     13.83447        -0.000236      0.000236      0.002983
      0.00000      6.33074      9.61025         0.000000      0.002069      0.077161
      2.11025      0.00000      9.61025        -0.002069      0.000000      0.077161
      0.00000      0.00000      7.50000         0.000000      0.000000     -0.501420
      2.11025      6.33074      7.50000        -0.000302      0.000302     -0.501185
      0.00000      6.33258     13.88587         0.000000     -0.002629      0.000476
      2.10840      0.00000     13.88587         0.002629      0.000000      0.000476
      0.00000      0.00000     11.72785         0.000000      0.000000      0.006295
      2.10979      6.33120     11.72890         0.002803     -0.002803     -0.000957
      0.00000      2.11025      9.61025         0.000000     -0.002069      0.077161
      2.11025      4.22049      9.61025         0.009163      0.000000      0.086267
      0.00000      4.22049      7.50000         0.000000      0.000000     -0.501257
      2.11025      2.11025      7.50000        -0.000302     -0.000302     -0.501185
      0.00000      2.10840     13.88587         0.000000      0.002629      0.000476
      2.10031      4.22049     13.88381         0.022089      0.000000      0.009354
      0.00000      4.22049     11.72684         0.000000      0.000000      0.004105
      2.10979      2.10979     11.72890         0.002803      0.002803     -0.000957
      4.22049      6.33074      9.61025         0.000000     -0.009163      0.086267
      6.33074      0.00000      9.61025         0.002069      0.000000      0.077161
      4.22049      0.00000      7.50000         0.000000      0.000000     -0.501257
      6.33074      6.33074      7.50000         0.000302      0.000302     -0.501185
      4.22049      6.34068     13.88381         0.000000     -0.022089      0.009354
      6.33258      0.00000     13.88587        -0.002629      0.000000      0.000476
      4.22049      0.00000     11.72684         0.000000      0.000000      0.004105
      6.33120      6.33120     11.72890        -0.002803     -0.002803     -0.000957
      4.22049      2.11025      9.61025         0.000000      0.009163      0.086267
      6.33074      4.22049      9.61025        -0.009163      0.000000      0.086267
      4.22049      4.22049      7.50000         0.000000      0.000000     -0.501963
      6.33074      2.11025      7.50000         0.000302     -0.000302     -0.501185
      4.22049      2.10031     13.88381         0.000000      0.022089      0.009354
      6.34068      4.22049     13.88381        -0.022089      0.000000      0.009354
      4.22049      4.22049     11.73684         0.000000      0.000000      0.000172
      6.33120      2.10979     11.72890        -0.002803      0.002803     -0.000957
 -----------------------------------------------------------------------------------
    total drift:                                0.000000      0.000000     -0.016941


--------------------------------------------------------------------------------------------------------



  FREE ENERGIE OF THE ION-ELECTRON SYSTEM (eV)
  ---------------------------------------------------
  free  energy   TOTEN  =      -386.04700398 eV

  energy  without entropy=     -386.04700398  energy(sigma->0) =     -386.04700398



--------------------------------------------------------------------------------------------------------


    POTLOK:  cpu time      3.1484: real time      3.1486


--------------------------------------------------------------------------------------------------------


     LOOP+:  cpu time     57.6836: real time     58.0355
    4ORBIT:  cpu time      0.0000: real time      0.0000

 total amount of memory used by VASP MPI-rank0    78528. kBytes
=======================================================================

   base      :      30000. kBytes
   nonl-proj :      29343. kBytes
   fftplans  :       3857. kBytes
   grid      :       5885. kBytes
   one-center:        137. kBytes
   wavefun   :       9306. kBytes

  
  
 General timing and accounting informations for this job:
 ========================================================
  
                  Total CPU time used (sec):       75.235
                            User time (sec):       73.518
                          System time (sec):        1.718
                         Elapsed time (sec):       80.642
  
                   Maximum memory used (kb):      179072.
                   Average memory used (kb):          N/A
  
                          Minor page faults:        32122
                          Major page faults:           52
                 Voluntary context switches:         7196
