 vasp.6.3.0 20Jan22 (build Apr  1 2022 16:44:48) complex                         
 executed on        HPECrayEX_GCC date 2023.05.17  13:32:29
 running  512 mpi-ranks, with    1 threads/rank
 distrk:  each k-point on  256 cores,    2 groups
 distr:  one band on NCORE=   4 cores,   64 groups


--------------------------------------------------------------------------------------------------------


 INCAR:
   SYSTEM = MgO-rocksalt
   ISMEAR = 0
   SIGMA = 0.05
   EDIFF = 1E-6
   ALGO = ALL
   ISTART = 0
   IBRION = -1
   NSW = 0
   ISYM = 2
   ISIF = 2
   EDIFFG = -0.01
   DIPOL = 0.5 0.5 0.5
   IDIPOL = 3
   LDIPOL = .TRUE.
   GGA = PE
   IVDW = 1
   VDW_C6 = 1.75 0.70 0.63 0.70
   VDW_R0 = 1.452 1.342 1.243 1.342
   ENCUT = 600
   PREC = Normal
   LASPH = .TRUE.
   LREAL = .FALSE.
   ISPIN = 1
   NELM = 200
   NELMIN = 8
   NCORE = 4
   KPAR = 2
   LWAVE = .FALSE.
   LCHARG = .FALSE.

 POTCAR:    PAW_PBE C 08Apr2002                   
 POTCAR:    PAW_PBE O 08Apr2002                   
 POTCAR:    PAW_PBE Mg_pv 13Apr2007               
 POTCAR:    PAW_PBE O 08Apr2002                   
 POTCAR:    PAW_PBE C 08Apr2002                   
   SHA256 =  253f7b50bb8d59471dbedb8285d89021f4a42ed1a2c5d38a03a736e69125dd95 C/POTCAR              
   COPYR  = (c) Copyright 08Apr2002 Georg Kresse                                                    
   COPYR  = This file is part of the software VASP. Any use, copying, and all other rights are regul
   COPYR  = If you do not have a valid VASP license, you may not use, copy or distribute this file. 
   VRHFIN =C: s2p2                                                                                  
   LEXCH  = PE                                                                                      
   EATOM  =   147.1560 eV,   10.8157 Ry                                                             
                                                                                                    
   TITEL  = PAW_PBE C 08Apr2002                                                                     
   LULTRA =        F    use ultrasoft PP ?                                                          
   IUNSCR =        1    unscreen: 0-lin 1-nonlin 2-no                                               
   RPACOR =    1.200    partial core radius                                                         
   POMASS =   12.011; ZVAL   =    4.000    mass and valenz                                          
   RCORE  =    1.500    outmost cutoff radius                                                       
   RWIGS  =    1.630; RWIGS  =    0.863    wigner-seitz radius (au A)                               
   ENMAX  =  400.000; ENMIN  =  300.000 eV                                                          
   ICORE  =        2    local potential                                                             
   LCOR   =        T    correct aug charges                                                         
   LPAW   =        T    paw PP                                                                      
   EAUG   =  644.873                                                                                
   DEXC   =    0.000                                                                                
   RMAX   =    1.529    core radius for proj-oper                                                   
   RAUG   =    1.300    factor for augmentation sphere                                              
   RDEP   =    1.501    radius for radial grids                                                     
   RDEPT  =    1.300    core radius for aug-charge                                                  
                                                                                                    
   Atomic configuration                                                                             
    4 entries                                                                                       
     n  l   j            E        occ.                                                              
     1  0  0.50      -273.3789   2.0000                                                             
     2  0  0.50       -13.7508   2.0000                                                             
     2  1  0.50        -5.2854   2.0000                                                             
     3  2  1.50        -5.4423   0.0000                                                             
   Description                                                                                      
     l       E           TYP  RCUT    TYP  RCUT                                                     
     0    -13.7508458     23  1.200                                                                 
     0     -8.2022199     23  1.200                                                                 
     1     -5.2854383     23  1.500                                                                 
     1     34.0145650     23  1.500                                                                 
     2     -5.4423304      7  1.500                                                                 
  local pseudopotential read in
  partial core-charges read in
  partial kinetic energy density read in
  atomic valenz-charges read in
  non local Contribution for L=           0  read in
    real space projection operators read in
  non local Contribution for L=           0  read in
    real space projection operators read in
  non local Contribution for L=           1  read in
    real space projection operators read in
  non local Contribution for L=           1  read in
    real space projection operators read in
    PAW grid and wavefunctions read in

   number of l-projection  operators is LMAX  =           4
   number of lm-projection operators is LMMAX =           8

 POTCAR:    PAW_PBE O 08Apr2002                   
   SHA256 =  818f92134a0a090dccd8ba1447fa70422a3b330e708bb4f08108d8ae51209ddf O/POTCAR              
   COPYR  = (c) Copyright 08Apr2002 Georg Kresse                                                    
   COPYR  = This file is part of the software VASP. Any use, copying, and all other rights are regul
   COPYR  = If you do not have a valid VASP license, you may not use, copy or distribute this file. 
   VRHFIN =O: s2p4                                                                                  
   LEXCH  = PE                                                                                      
   EATOM  =   432.3788 eV,   31.7789 Ry                                                             
                                                                                                    
   TITEL  = PAW_PBE O 08Apr2002                                                                     
   LULTRA =        F    use ultrasoft PP ?                                                          
   IUNSCR =        1    unscreen: 0-lin 1-nonlin 2-no                                               
   RPACOR =    1.200    partial core radius                                                         
   POMASS =   16.000; ZVAL   =    6.000    mass and valenz                                          
   RCORE  =    1.520    outmost cutoff radius                                                       
   RWIGS  =    1.550; RWIGS  =    0.820    wigner-seitz radius (au A)                               
   ENMAX  =  400.000; ENMIN  =  300.000 eV                                                          
   ICORE  =        2    local potential                                                             
   LCOR   =        T    correct aug charges                                                         
   LPAW   =        T    paw PP                                                                      
   EAUG   =  605.392                                                                                
   DEXC   =    0.000                                                                                
   RMAX   =    1.553    core radius for proj-oper                                                   
   RAUG   =    1.300    factor for augmentation sphere                                              
   RDEP   =    1.550    radius for radial grids                                                     
   RDEPT  =    1.329    core radius for aug-charge                                                  
                                                                                                    
   Atomic configuration                                                                             
    4 entries                                                                                       
     n  l   j            E        occ.                                                              
     1  0  0.50      -514.6923   2.0000                                                             
     2  0  0.50       -23.9615   2.0000                                                             
     2  1  0.50        -9.0305   4.0000                                                             
     3  2  1.50        -9.5241   0.0000                                                             
   Description                                                                                      
     l       E           TYP  RCUT    TYP  RCUT                                                     
     0    -23.9615318     23  1.200                                                                 
     0     -9.5240782     23  1.200                                                                 
     1     -9.0304911     23  1.520                                                                 
     1      8.1634956     23  1.520                                                                 
     2     -9.5240782      7  1.500                                                                 
  local pseudopotential read in
  partial core-charges read in
  partial kinetic energy density read in
  kinetic energy density of atom read in
  atomic valenz-charges read in
  non local Contribution for L=           0  read in
    real space projection operators read in
  non local Contribution for L=           0  read in
    real space projection operators read in
  non local Contribution for L=           1  read in
    real space projection operators read in
  non local Contribution for L=           1  read in
    real space projection operators read in
    PAW grid and wavefunctions read in

   number of l-projection  operators is LMAX  =           4
   number of lm-projection operators is LMMAX =           8

 POTCAR:    PAW_PBE Mg_pv 13Apr2007               
   SHA256 =  f474ac0dd33840b9ae76c01d57fea79fdf77cdfbb07d5ade72c65f83c709b62b Mg_pv/POTCAR          
   COPYR  = (c) Copyright 13Apr2007 Georg Kresse                                                    
   COPYR  = This file is part of the software VASP. Any use, copying, and all other rights are regul
   COPYR  = If you do not have a valid VASP license, you may not use, copy or distribute this file. 
   VRHFIN =Mg: p6s2                                                                                 
   LEXCH  = PE                                                                                      
   EATOM  =  1056.7344 eV,   77.6678 Ry                                                             
                                                                                                    
   TITEL  = PAW_PBE Mg_pv 13Apr2007                                                                 
   LULTRA =        F    use ultrasoft PP ?                                                          
   IUNSCR =        1    unscreen: 0-lin 1-nonlin 2-no                                               
   RPACOR =    1.500    partial core radius                                                         
   POMASS =   24.305; ZVAL   =    8.000    mass and valenz                                          
   RCORE  =    2.000    outmost cutoff radius                                                       
   RWIGS  =    2.000; RWIGS  =    1.058    wigner-seitz radius (au A)                               
   ENMAX  =  403.929; ENMIN  =  302.947 eV                                                          
   RCLOC  =    1.506    cutoff for local pot                                                        
   LCOR   =        T    correct aug charges                                                         
   LPAW   =        T    paw PP                                                                      
   EAUG   =  758.780                                                                                
   DEXC   =    0.000                                                                                
   RMAX   =    2.045    core radius for proj-oper                                                   
   RAUG   =    1.300    factor for augmentation sphere                                              
   RDEP   =    2.025    radius for radial grids                                                     
   RDEPT  =    1.557    core radius for aug-charge                                                  
                                                                                                    
   Atomic configuration                                                                             
    5 entries                                                                                       
     n  l   j            E        occ.                                                              
     1  0  0.50     -1259.6230   2.0000                                                             
     2  0  0.50       -79.8442   2.0000                                                             
     2  1  1.50       -46.6121   6.0000                                                             
     3  0  0.50        -4.7055   2.0000                                                             
     3  2  1.50        -1.3606   0.0000                                                             
   Description                                                                                      
     l       E           TYP  RCUT    TYP  RCUT                                                     
     1    -46.6121073     23  1.600                                                                 
     1      2.7211652     23  1.600                                                                 
     0     -4.7054661     23  2.000                                                                 
     0     61.2262170     23  2.000                                                                 
     2     -1.3605826     23  2.000                                                                 
  local pseudopotential read in
  partial core-charges read in
  partial kinetic energy density read in
  atomic valenz-charges read in
  non local Contribution for L=           1  read in
    real space projection operators read in
  non local Contribution for L=           1  read in
    real space projection operators read in
  non local Contribution for L=           0  read in
    real space projection operators read in
  non local Contribution for L=           0  read in
    real space projection operators read in
  non local Contribution for L=           2  read in
    real space projection operators read in
    PAW grid and wavefunctions read in

   number of l-projection  operators is LMAX  =           5
   number of lm-projection operators is LMMAX =          13

 POTCAR:    PAW_PBE O 08Apr2002                   
   SHA256 =  818f92134a0a090dccd8ba1447fa70422a3b330e708bb4f08108d8ae51209ddf O/POTCAR              
   COPYR  = (c) Copyright 08Apr2002 Georg Kresse                                                    
   COPYR  = This file is part of the software VASP. Any use, copying, and all other rights are regul
   COPYR  = If you do not have a valid VASP license, you may not use, copy or distribute this file. 
   VRHFIN =O: s2p4                                                                                  
   LEXCH  = PE                                                                                      
   EATOM  =   432.3788 eV,   31.7789 Ry                                                             
                                                                                                    
   TITEL  = PAW_PBE O 08Apr2002                                                                     
   LULTRA =        F    use ultrasoft PP ?                                                          
   IUNSCR =        1    unscreen: 0-lin 1-nonlin 2-no                                               
   RPACOR =    1.200    partial core radius                                                         
   POMASS =   16.000; ZVAL   =    6.000    mass and valenz                                          
   RCORE  =    1.520    outmost cutoff radius                                                       
   RWIGS  =    1.550; RWIGS  =    0.820    wigner-seitz radius (au A)                               
   ENMAX  =  400.000; ENMIN  =  300.000 eV                                                          
   ICORE  =        2    local potential                                                             
   LCOR   =        T    correct aug charges                                                         
   LPAW   =        T    paw PP                                                                      
   EAUG   =  605.392                                                                                
   DEXC   =    0.000                                                                                
   RMAX   =    1.553    core radius for proj-oper                                                   
   RAUG   =    1.300    factor for augmentation sphere                                              
   RDEP   =    1.550    radius for radial grids                                                     
   RDEPT  =    1.329    core radius for aug-charge                                                  
                                                                                                    
   Atomic configuration                                                                             
    4 entries                                                                                       
     n  l   j            E        occ.                                                              
     1  0  0.50      -514.6923   2.0000                                                             
     2  0  0.50       -23.9615   2.0000                                                             
     2  1  0.50        -9.0305   4.0000                                                             
     3  2  1.50        -9.5241   0.0000                                                             
   Description                                                                                      
     l       E           TYP  RCUT    TYP  RCUT                                                     
     0    -23.9615318     23  1.200                                                                 
     0     -9.5240782     23  1.200                                                                 
     1     -9.0304911     23  1.520                                                                 
     1      8.1634956     23  1.520                                                                 
     2     -9.5240782      7  1.500                                                                 
  local pseudopotential read in
  partial core-charges read in
  partial kinetic energy density read in
  kinetic energy density of atom read in
  atomic valenz-charges read in
  non local Contribution for L=           0  read in
    real space projection operators read in
  non local Contribution for L=           0  read in
    real space projection operators read in
  non local Contribution for L=           1  read in
    real space projection operators read in
  non local Contribution for L=           1  read in
    real space projection operators read in
    PAW grid and wavefunctions read in

   number of l-projection  operators is LMAX  =           4
   number of lm-projection operators is LMMAX =           8

 -----------------------------------------------------------------------------
|                                                                             |
|               ----> ADVICE to this user running VASP <----                  |
|                                                                             |
|     You have a (more or less) 'large supercell' and for larger cells it     |
|     might be more efficient to use real-space projection operators.         |
|     Therefore, try LREAL= Auto in the INCAR file.                           |
|     Mind: For very accurate calculation, you might also keep the            |
|     reciprocal projection scheme (i.e. LREAL=.FALSE.).                      |
|                                                                             |
 -----------------------------------------------------------------------------

  PAW_PBE C 08Apr2002                   :
 energy of atom  1       EATOM= -147.1560
 kinetic energy error for atom=    0.0057 (will be added to EATOM!!)
  PAW_PBE O 08Apr2002                   :
 energy of atom  2       EATOM= -432.3788
 kinetic energy error for atom=    0.0168 (will be added to EATOM!!)
  PAW_PBE Mg_pv 13Apr2007               :
 energy of atom  3       EATOM=-1056.7344
 kinetic energy error for atom=    0.0221 (will be added to EATOM!!)
  PAW_PBE O 08Apr2002                   :
 energy of atom  4       EATOM= -432.3788
 kinetic energy error for atom=    0.0168 (will be added to EATOM!!)


 POSCAR:  C  O Mg  O
  positions in direct lattice
  No initial velocities read in
 exchange correlation table for  LEXCH =        8
   RHO(1)=    0.500       N(1)  =     2000
   RHO(2)=  100.500       N(2)  =     4000



--------------------------------------------------------------------------------------------------------


 ion  position               nearest neighbor table
   1  0.500  0.500  0.762-   2 1.15
   2  0.500  0.500  0.816-   1 1.15
   3  0.000  0.750  0.352-  35 2.11  37 2.11  38 2.11  45 2.11  54 2.11
   4  0.250  0.000  0.352-  36 2.11  37 2.11  38 2.11  46 2.11  53 2.11
   5  0.000  0.000  0.451-  37 2.11  36 2.11  35 2.11  43 2.11  52 2.11  41 2.12
   6  0.250  0.750  0.451-  38 2.11  36 2.11  35 2.11  44 2.11  51 2.11  42 2.12
   7  0.000  0.750  0.550-  49 2.11  42 2.11  58 2.11  41 2.11  35 2.12  39 2.15
   8  0.250  0.000  0.550-  57 2.11  50 2.11  42 2.11  41 2.11  36 2.12  40 2.15
   9  0.000  0.000  0.649-  39 2.11  40 2.11  47 2.11  56 2.11  41 2.11
  10  0.250  0.750  0.649-  42 2.11  40 2.11  39 2.11  48 2.11  55 2.11
  11  0.000  0.250  0.352-  43 2.11  37 2.11  45 2.11  46 2.11  62 2.11
  12  0.250  0.500  0.352-  44 2.11  38 2.11  45 2.11  46 2.11  61 2.11
  13  0.000  0.500  0.451-  45 2.11  43 2.11  44 2.11  35 2.11  60 2.11  49 2.12
  14  0.250  0.250  0.451-  46 2.11  43 2.11  44 2.11  36 2.11  59 2.11  50 2.12
  15  0.000  0.250  0.550-  49 2.11  50 2.11  66 2.11  41 2.11  43 2.12  47 2.15
  16  0.250  0.500  0.550-  65 2.11  50 2.11  42 2.11  49 2.11  44 2.13  48 2.15
  17  0.000  0.500  0.649-  48 2.10  64 2.10  49 2.11  47 2.11  39 2.11
  18  0.250  0.250  0.649-  50 2.11  47 2.11  40 2.11  48 2.11  63 2.11
  19  0.500  0.750  0.352-  51 2.11  38 2.11  53 2.11  54 2.11  61 2.11
  20  0.750  0.000  0.352-  52 2.11  37 2.11  53 2.11  54 2.11  62 2.11
  21  0.500  0.000  0.451-  53 2.11  51 2.11  52 2.11  36 2.11  59 2.11  57 2.12
  22  0.750  0.750  0.451-  54 2.11  51 2.11  52 2.11  35 2.11  60 2.11  58 2.12
  23  0.500  0.750  0.550-  65 2.11  58 2.11  42 2.11  57 2.11  51 2.13  55 2.15
  24  0.750  0.000  0.550-  57 2.11  58 2.11  66 2.11  41 2.11  52 2.12  56 2.15
  25  0.500  0.000  0.649-  55 2.10  63 2.10  57 2.11  40 2.11  56 2.11
  26  0.750  0.750  0.649-  58 2.11  56 2.11  39 2.11  55 2.11  64 2.11
  27  0.500  0.250  0.352-  59 2.11  53 2.11  46 2.11  61 2.11  62 2.11
  28  0.750  0.500  0.352-  60 2.11  54 2.11  45 2.11  61 2.11  62 2.11
  29  0.500  0.500  0.451-  61 2.11  51 2.11  59 2.11  60 2.11  44 2.11  65 2.13
  30  0.750  0.250  0.451-  62 2.11  52 2.11  59 2.11  60 2.11  43 2.11  66 2.12
  31  0.500  0.250  0.550-  65 2.11  50 2.11  66 2.11  57 2.11  59 2.13  63 2.15
  32  0.750  0.500  0.550-  65 2.11  58 2.11  66 2.11  49 2.11  60 2.13  64 2.15
  33  0.500  0.500  0.651-  48 2.12  55 2.12  63 2.12  64 2.12  65 2.14
  34  0.750  0.250  0.649-  66 2.11  56 2.11  47 2.11  64 2.11  63 2.11
  35  0.000  0.750  0.451-   3 2.11   5 2.11   6 2.11  13 2.11  22 2.11   7 2.12
  36  0.250  0.000  0.451-   4 2.11   5 2.11   6 2.11  14 2.11  21 2.11   8 2.12
  37  0.000  0.000  0.352-   5 2.11   4 2.11   3 2.11  11 2.11  20 2.11
  38  0.250  0.750  0.352-   6 2.11   4 2.11   3 2.11  12 2.11  19 2.11
  39  0.000  0.750  0.651-   9 2.11  10 2.11  26 2.11  17 2.11   7 2.15
  40  0.250  0.000  0.651-   9 2.11  10 2.11  18 2.11  25 2.11   8 2.15
  41  0.000  0.000  0.550-   9 2.11   8 2.11   7 2.11  15 2.11  24 2.11   5 2.12
  42  0.250  0.750  0.550-  10 2.11   8 2.11   7 2.11  16 2.11  23 2.11   6 2.12
  43  0.000  0.250  0.451-  11 2.11   5 2.11  13 2.11  14 2.11  30 2.11  15 2.12
  44  0.250  0.500  0.451-  12 2.11   6 2.11  13 2.11  14 2.11  29 2.11  16 2.13
  45  0.000  0.500  0.352-  13 2.11  11 2.11  12 2.11   3 2.11  28 2.11
  46  0.250  0.250  0.352-  14 2.11  11 2.11  12 2.11   4 2.11  27 2.11
  47  0.000  0.250  0.651-   9 2.11  18 2.11  34 2.11  17 2.11  15 2.15
  48  0.249  0.500  0.651-  17 2.10  10 2.11  18 2.11  33 2.12  16 2.15
  49  0.000  0.500  0.550-  17 2.11  15 2.11   7 2.11  16 2.11  32 2.11  13 2.12
  50  0.250  0.250  0.550-  18 2.11  15 2.11   8 2.11  16 2.11  31 2.11  14 2.12
  51  0.500  0.750  0.451-  19 2.11   6 2.11  21 2.11  22 2.11  29 2.11  23 2.13
  52  0.750  0.000  0.451-  20 2.11   5 2.11  21 2.11  22 2.11  30 2.11  24 2.12
  53  0.500  0.000  0.352-  21 2.11  19 2.11  20 2.11   4 2.11  27 2.11
  54  0.750  0.750  0.352-  22 2.11  19 2.11  20 2.11   3 2.11  28 2.11
  55  0.500  0.751  0.651-  25 2.10  10 2.11  26 2.11  33 2.12  23 2.15
  56  0.750  0.000  0.651-   9 2.11  26 2.11  34 2.11  25 2.11  24 2.15
  57  0.500  0.000  0.550-  25 2.11  24 2.11   8 2.11  23 2.11  31 2.11  21 2.12
  58  0.750  0.750  0.550-  26 2.11  24 2.11   7 2.11  32 2.11  23 2.11  22 2.12
  59  0.500  0.250  0.451-  27 2.11  21 2.11  14 2.11  29 2.11  30 2.11  31 2.13
  60  0.750  0.500  0.451-  28 2.11  22 2.11  13 2.11  29 2.11  30 2.11  32 2.13
  61  0.500  0.500  0.352-  29 2.11  19 2.11  27 2.11  28 2.11  12 2.11
  62  0.750  0.250  0.352-  30 2.11  20 2.11  27 2.11  28 2.11  11 2.11
  63  0.500  0.249  0.651-  25 2.10  18 2.11  34 2.11  33 2.12  31 2.15
  64  0.751  0.500  0.651-  17 2.10  26 2.11  34 2.11  33 2.12  32 2.15
  65  0.500  0.500  0.550-  16 2.11  23 2.11  31 2.11  32 2.11  29 2.13  33 2.14
  66  0.750  0.250  0.550-  34 2.11  24 2.11  15 2.11  32 2.11  31 2.11  30 2.12

  LATTYP: Found a simple tetragonal cell.
 ALAT       =     8.4409846542
 C/A-ratio  =     2.5270438657
  
  Lattice vectors:
  
 A1 = (   8.4409846542,   0.0000000000,   0.0000000000)
 A2 = (   0.0000000000,   8.4409846542,   0.0000000000)
 A3 = (   0.0000000000,   0.0000000000,  21.3307384906)


Analysis of symmetry for initial positions (statically):
=====================================================================
 Subroutine PRICEL returns:
 Original cell was already a primitive cell.
 

 Routine SETGRP: Setting up the symmetry group for a 
 simple tetragonal supercell.


 Subroutine GETGRP returns: Found  8 space group operations
 (whereof  8 operations were pure point group operations)
 out of a pool of 16 trial point group operations.


The static configuration has the point symmetry C_4v.


Analysis of symmetry for dynamics (positions and initial velocities):
=====================================================================
 Subroutine PRICEL returns:
 Original cell was already a primitive cell.
 

 Routine SETGRP: Setting up the symmetry group for a 
 simple tetragonal supercell.


 Subroutine GETGRP returns: Found  8 space group operations
 (whereof  8 operations were pure point group operations)
 out of a pool of 16 trial point group operations.


The dynamic configuration has the point symmetry C_4v.


 Subroutine INISYM returns: Found  8 space group operations
 (whereof  8 operations are pure point group operations),
 and found     1 'primitive' translations


----------------------------------------------------------------------------------------

                                     Primitive cell                                     

  volume of cell :    1519.8199

  direct lattice vectors                    reciprocal lattice vectors
     8.440984654  0.000000000  0.000000000     0.118469591  0.000000000  0.000000000
     0.000000000  8.440984654  0.000000000     0.000000000  0.118469591  0.000000000
     0.000000000  0.000000000 21.330738491     0.000000000  0.000000000  0.046880702

  length of vectors
     8.440984654  8.440984654 21.330738491     0.118469591  0.118469591  0.046880702

  position of ions in fractional coordinates (direct lattice)
     0.500000000  0.500000000  0.762193032
     0.500000000  0.500000000  0.815956750
     0.000000000  0.750000000  0.351605267
     0.250000000  0.000000000  0.351605267
     0.000000000  0.000000000  0.450535089
     0.250000000  0.750000000  0.450535089
     0.000000000  0.749939268  0.550083239
     0.250060732  0.000000000  0.550083239
     0.000000000  0.000000000  0.648745309
     0.249858327  0.750141673  0.648569547
     0.000000000  0.250000000  0.351605267
     0.250000000  0.500000000  0.351605267
     0.000000000  0.500000000  0.450535089
     0.250000000  0.250000000  0.450535089
     0.000000000  0.250060732  0.550083239
     0.250378379  0.500000000  0.550219524
     0.000000000  0.500000000  0.648615280
     0.249858327  0.249858327  0.648569547
     0.500000000  0.750000000  0.351605267
     0.750000000  0.000000000  0.351605267
     0.500000000  0.000000000  0.450535089
     0.750000000  0.750000000  0.450535089
     0.500000000  0.749621621  0.550219524
     0.749939268  0.000000000  0.550083239
     0.500000000  0.000000000  0.648615280
     0.750141673  0.750141673  0.648569547
     0.500000000  0.250000000  0.351605267
     0.750000000  0.500000000  0.351605267
     0.500000000  0.500000000  0.450535089
     0.750000000  0.250000000  0.450535089
     0.500000000  0.250378379  0.550219524
     0.749621621  0.500000000  0.550219524
     0.500000000  0.500000000  0.650616960
     0.750141673  0.249858327  0.648569547
     0.000000000  0.750000000  0.450535089
     0.250000000  0.000000000  0.450535089
     0.000000000  0.000000000  0.351605267
     0.250000000  0.750000000  0.351605267
     0.000000000  0.750218533  0.650979255
     0.249781467  0.000000000  0.650979255
     0.000000000  0.000000000  0.549809890
     0.249945770  0.750054230  0.549859113
     0.000000000  0.250000000  0.450535089
     0.250000000  0.500000000  0.450535089
     0.000000000  0.500000000  0.351605267
     0.250000000  0.250000000  0.351605267
     0.000000000  0.249781467  0.650979255
     0.248822710  0.500000000  0.650882872
     0.000000000  0.500000000  0.549762666
     0.249945770  0.249945770  0.549859113
     0.500000000  0.750000000  0.450535089
     0.750000000  0.000000000  0.450535089
     0.500000000  0.000000000  0.351605267
     0.750000000  0.750000000  0.351605267
     0.500000000  0.751177290  0.650882872
     0.750218533  0.000000000  0.650979255
     0.500000000  0.000000000  0.549762666
     0.750054230  0.750054230  0.549859113
     0.500000000  0.250000000  0.450535089
     0.750000000  0.500000000  0.450535089
     0.500000000  0.500000000  0.351605267
     0.750000000  0.250000000  0.351605267
     0.500000000  0.248822710  0.650882872
     0.751177290  0.500000000  0.650882872
     0.500000000  0.500000000  0.550231357
     0.750054230  0.249945770  0.549859113

  ion indices of the primitive-cell ions
   primitive index   ion index
                 1           1
                 2           2
                 3           3
                 4           4
                 5           5
                 6           6
                 7           7
                 8           8
                 9           9
                10          10
                11          11
                12          12
                13          13
                14          14
                15          15
                16          16
                17          17
                18          18
                19          19
                20          20
                21          21
                22          22
                23          23
                24          24
                25          25
                26          26
                27          27
                28          28
                29          29
                30          30
                31          31
                32          32
                33          33
                34          34
                35          35
                36          36
                37          37
                38          38
                39          39
                40          40
                41          41
                42          42
                43          43
                44          44
                45          45
                46          46
                47          47
                48          48
                49          49
                50          50
                51          51
                52          52
                53          53
                54          54
                55          55
                56          56
                57          57
                58          58
                59          59
                60          60
                61          61
                62          62
                63          63
                64          64
                65          65
                66          66

----------------------------------------------------------------------------------------



 KPOINTS: pymatgen v2020.8.13 with grid density = 

Automatic generation of k-mesh.
 Grid dimensions read from file:
 generate k-points for:    2    2    1

 Generating k-lattice:

  Cartesian coordinates                     Fractional coordinates (reciprocal lattice)
     0.059234796  0.000000000  0.000000000     0.500000000  0.000000000  0.000000000
     0.000000000  0.059234796  0.000000000     0.000000000  0.500000000  0.000000000
     0.000000000  0.000000000  0.046880702     0.000000000  0.000000000  1.000000000

  Length of vectors
     0.059234796  0.059234796  0.046880702

  Shift w.r.t. Gamma in fractional coordinates (k-lattice)
     0.000000000  0.000000000  0.000000000

 
 Subroutine IBZKPT returns following result:
 ===========================================
 
 Found      3 irreducible k-points:
 
 Following reciprocal coordinates:
            Coordinates               Weight
  0.000000  0.000000  0.000000      1.000000
  0.500000  0.000000  0.000000      2.000000
  0.500000  0.500000  0.000000      1.000000
 
 Following cartesian coordinates:
            Coordinates               Weight
  0.000000  0.000000  0.000000      1.000000
  0.059235  0.000000  0.000000      2.000000
  0.059235  0.059235  0.000000      1.000000
 


--------------------------------------------------------------------------------------------------------




 Dimension of arrays:
   k-points           NKPTS =      3   k-points in BZ     NKDIM =      3   number of bands    NBANDS=    320
   number of dos      NEDOS =    301   number of ions     NIONS =     66
   non local maximal  LDIM  =      5   non local SUM 2l+1 LMDIM =     13
   total plane-waves  NPLWV = 373248
   max r-space proj   IRMAX =      1   max aug-charges    IRDMAX=   5039
   dimension x,y,z NGX =    54 NGY =   54 NGZ =  128
   dimension x,y,z NGXF=   108 NGYF=  108 NGZF=  256
   support grid    NGXF=   108 NGYF=  108 NGZF=  256
   ions per type =               1   1  32  32
   NGX,Y,Z   is equivalent  to a cutoff of  10.64, 10.64,  9.98 a.u.
   NGXF,Y,Z  is equivalent  to a cutoff of  21.27, 21.27, 19.95 a.u.

 SYSTEM =  MgO-rocksalt                            
 POSCAR =   C  O Mg  O                             

 Startparameter for this run:
   NWRITE =      2    write-flag & timer
   PREC   = normal    normal or accurate (medium, high low for compatibility)
   ISTART =      0    job   : 0-new  1-cont  2-samecut
   ICHARG =      2    charge: 1-file 2-atom 10-const
   ISPIN  =      1    spin polarized calculation?
   LNONCOLLINEAR =      F non collinear calculations
   LSORBIT =      F    spin-orbit coupling
   INIWAV =      1    electr: 0-lowe 1-rand  2-diag
   LASPH  =      T    aspherical Exc in radial PAW
 Electronic Relaxation 1
   ENCUT  =  600.0 eV  44.10 Ry    6.64 a.u.  16.86 16.86 42.60*2*pi/ulx,y,z
   ENINI  =  600.0     initial cutoff
   ENAUG  =  758.8 eV  augmentation charge cutoff
   NELM   =    200;   NELMIN=  8; NELMDL= -5     # of ELM steps 
   EDIFF  = 0.1E-05   stopping-criterion for ELM
   LREAL  =      F    real-space projection
   NLSPLINE    = F    spline interpolate recip. space projectors
   LCOMPAT=      F    compatible to vasp.4.4
   GGA_COMPAT  = T    GGA compatible to vasp.4.4-vasp.4.6
   LMAXPAW     = -100 max onsite density
   LMAXMIX     =    2 max onsite mixed and CHGCAR
   VOSKOWN=      0    Vosko Wilk Nusair interpolation
   ROPT   =    0.00000   0.00000   0.00000   0.00000
 Ionic relaxation
   EDIFFG = -.1E-01   stopping-criterion for IOM
   NSW    =      0    number of steps for IOM
   NBLOCK =      1;   KBLOCK =      1    inner block; outer block 
   IBRION =     -1    ionic relax: 0-MD 1-quasi-New 2-CG
   NFREE  =      0    steps in history (QN), initial steepest desc. (CG)
   ISIF   =      2    stress and relaxation
   IWAVPR =     10    prediction:  0-non 1-charg 2-wave 3-comb
   ISYM   =      2    0-nonsym 1-usesym 2-fastsym
   LCORR  =      T    Harris-Foulkes like correction to forces

   POTIM  = 0.5000    time-step for ionic-motion
   TEIN   =    0.0    initial temperature
   TEBEG  =    0.0;   TEEND  =   0.0 temperature during run
   SMASS  =  -3.00    Nose mass-parameter (am)
   estimated Nose-frequenzy (Omega)   =  0.10E-29 period in steps = 0.13E+47 mass=  -0.163E-26a.u.
   SCALEE = 1.0000    scale energy and forces
   NPACO  =    256;   APACO  = 10.0  distance and # of slots for P.C.
   PSTRESS=    0.0 pullay stress

  Mass of Ions in am
   POMASS =  12.01 16.00 24.30 16.00
  Ionic Valenz
   ZVAL   =   4.00  6.00  8.00  6.00
  Atomic Wigner-Seitz radii
   RWIGS  =  -1.00 -1.00 -1.00 -1.00
  virtual crystal weights 
   VCA    =   1.00  1.00  1.00  1.00
   NELECT =     458.0000    total number of electrons
   NUPDOWN=      -1.0000    fix difference up-down

 DOS related values:
   EMIN   =  10.00;   EMAX   =-10.00  energy-range for DOS
   EFERMI =   0.00
   ISMEAR =     0;   SIGMA  =   0.05  broadening in eV -4-tet -1-fermi 0-gaus

 Electronic relaxation 2 (details)
   IALGO  =     58    algorithm
   LDIAG  =      T    sub-space diagonalisation (order eigenvalues)
   LSUBROT=      F    optimize rotation matrix (better conditioning)
   TURBO    =      0    0=normal 1=particle mesh
   IRESTART =      0    0=no restart 2=restart with 2 vectors
   NREBOOT  =      0    no. of reboots
   NMIN     =      0    reboot dimension
   EREF     =   0.00    reference energy to select bands
   IMIX   =      4    mixing-type and parameters
     AMIX     =   0.40;   BMIX     =  1.00
     AMIX_MAG =   1.60;   BMIX_MAG =  1.00
     AMIN     =   0.10
     WC   =   100.;   INIMIX=   1;  MIXPRE=   1;  MAXMIX= -45

 Intra band minimization:
   WEIMIN = 0.0000     energy-eigenvalue tresh-hold
   EBREAK =  0.78E-09  absolut break condition
   DEPER  =   0.30     relativ break condition  

   TIME   =   0.40     timestep for ELM

  volume/ion in A,a.u.               =      23.03       155.40
  Fermi-wavevector in a.u.,A,eV,Ry     =   1.097571  2.074108 16.390423  1.204662
  Thomas-Fermi vector in A             =   2.233933

 Write flags
   LWAVE        =      F    write WAVECAR
   LDOWNSAMPLE  =      F    k-point downsampling of WAVECAR
   LCHARG       =      F    write CHGCAR
   LVTOT        =      F    write LOCPOT, total local potential
   LVHAR        =      F    write LOCPOT, Hartree potential only
   LELF         =      F    write electronic localiz. function (ELF)
   LORBIT       =      0    0 simple, 1 ext, 2 COOP (PROOUT), +10 PAW based schemes


 Dipole corrections
   LMONO  =      F    monopole corrections only (constant potential shift)
   LDIPOL =      T    correct potential (dipole corrections)
   IDIPOL =      3    1-x, 2-y, 3-z, 4-all directions 
   EPSILON=  1.0000000 bulk dielectric constant

 Exchange correlation treatment:
   GGA     =    PE    GGA type
   LEXCH   =     8    internal setting for exchange type
   LIBXC   =     F    Libxc                    
   VOSKOWN =     0    Vosko Wilk Nusair interpolation
   LHFCALC =     F    Hartree Fock is set to
   LHFONE  =     F    Hartree Fock one center treatment
   AEXX    =    0.0000 exact exchange contribution

 Linear response parameters
   LEPSILON=     F    determine dielectric tensor
   LRPA    =     F    only Hartree local field effects (RPA)
   LNABLA  =     F    use nabla operator in PAW spheres
   LVEL    =     F    velocity operator in full k-point grid
   CSHIFT  =0.1000    complex shift for real part using Kramers Kronig
   OMEGAMAX=  -1.0    maximum frequency
   DEG_THRESHOLD= 0.2000000E-02 threshold for treating states as degnerate
   RTIME   =   -0.100 relaxation time in fs
  (WPLASMAI=    0.000 imaginary part of plasma frequency in eV, 0.658/RTIME)
   DFIELD  = 0.0000000 0.0000000 0.0000000 field for delta impulse in time

  Optional k-point grid parameters
   LKPOINTS_OPT  =     F    use optional k-point grid
   KPOINTS_OPT_MODE=     1    mode for optional k-point grid

 Orbital magnetization related:
   ORBITALMAG=     F  switch on orbital magnetization
   LCHIMAG   =     F  perturbation theory with respect to B field
   DQ        =  0.001000  dq finite difference perturbation B field
   LLRAUG    =     F  two centre corrections for induced B field



--------------------------------------------------------------------------------------------------------


 Static calculation
 charge density and potential will be updated during run
 non-spin polarized calculation
 Conjugate gradient for all bands (Freysoldt, et al. PRB 79, 241103 (2009))
 preconditioned conjugated gradient                                        
 perform sub-space diagonalisation
    before iterative eigenvector-optimisation
 modified Broyden-mixing scheme, WC =      100.0
 initial mixing is a Kerker type mixing with AMIX =  0.4000 and BMIX =      1.0000
 Hartree-type preconditioning will be used
 using additional bands           91
 reciprocal scheme for non local part
 use partial core corrections
 no Harris-corrections to forces 
 use gradient corrections 
 use of overlap-Matrix (Vanderbilt PP)
 Gauss-broadening in eV      SIGMA  =   0.05


--------------------------------------------------------------------------------------------------------


  energy-cutoff  :      600.00
  volume of cell :     1519.82
      direct lattice vectors                 reciprocal lattice vectors
     8.440984654  0.000000000  0.000000000     0.118469591  0.000000000  0.000000000
     0.000000000  8.440984654  0.000000000     0.000000000  0.118469591  0.000000000
     0.000000000  0.000000000 21.330738491     0.000000000  0.000000000  0.046880702

  length of vectors
     8.440984654  8.440984654 21.330738491     0.118469591  0.118469591  0.046880702



 k-points in units of 2pi/SCALE and weight: pymatgen v2020.8.13 with grid density = 
   0.00000000  0.00000000  0.00000000       0.250
   0.05923480  0.00000000  0.00000000       0.500
   0.05923480  0.05923480  0.00000000       0.250

 k-points in reciprocal lattice and weights: pymatgen v2020.8.13 with grid density = 
   0.00000000  0.00000000  0.00000000       0.250
   0.50000000  0.00000000  0.00000000       0.500
   0.50000000  0.50000000  0.00000000       0.250

 position of ions in fractional coordinates (direct lattice) 
   0.50000000  0.50000000  0.76219303
   0.50000000  0.50000000  0.81595675
   0.00000000  0.75000000  0.35160527
   0.25000000  0.00000000  0.35160527
   0.00000000  0.00000000  0.45053509
   0.25000000  0.75000000  0.45053509
   0.00000000  0.74993927  0.55008324
   0.25006073  0.00000000  0.55008324
   0.00000000  0.00000000  0.64874531
   0.24985833  0.75014167  0.64856955
   0.00000000  0.25000000  0.35160527
   0.25000000  0.50000000  0.35160527
   0.00000000  0.50000000  0.45053509
   0.25000000  0.25000000  0.45053509
   0.00000000  0.25006073  0.55008324
   0.25037838  0.50000000  0.55021952
   0.00000000  0.50000000  0.64861528
   0.24985833  0.24985833  0.64856955
   0.50000000  0.75000000  0.35160527
   0.75000000  0.00000000  0.35160527
   0.50000000  0.00000000  0.45053509
   0.75000000  0.75000000  0.45053509
   0.50000000  0.74962162  0.55021952
   0.74993927  0.00000000  0.55008324
   0.50000000  0.00000000  0.64861528
   0.75014167  0.75014167  0.64856955
   0.50000000  0.25000000  0.35160527
   0.75000000  0.50000000  0.35160527
   0.50000000  0.50000000  0.45053509
   0.75000000  0.25000000  0.45053509
   0.50000000  0.25037838  0.55021952
   0.74962162  0.50000000  0.55021952
   0.50000000  0.50000000  0.65061696
   0.75014167  0.24985833  0.64856955
   0.00000000  0.75000000  0.45053509
   0.25000000  0.00000000  0.45053509
   0.00000000  0.00000000  0.35160527
   0.25000000  0.75000000  0.35160527
   0.00000000  0.75021853  0.65097926
   0.24978147  0.00000000  0.65097926
   0.00000000  0.00000000  0.54980989
   0.24994577  0.75005423  0.54985911
   0.00000000  0.25000000  0.45053509
   0.25000000  0.50000000  0.45053509
   0.00000000  0.50000000  0.35160527
   0.25000000  0.25000000  0.35160527
   0.00000000  0.24978147  0.65097926
   0.24882271  0.50000000  0.65088287
   0.00000000  0.50000000  0.54976267
   0.24994577  0.24994577  0.54985911
   0.50000000  0.75000000  0.45053509
   0.75000000  0.00000000  0.45053509
   0.50000000  0.00000000  0.35160527
   0.75000000  0.75000000  0.35160527
   0.50000000  0.75117729  0.65088287
   0.75021853  0.00000000  0.65097926
   0.50000000  0.00000000  0.54976267
   0.75005423  0.75005423  0.54985911
   0.50000000  0.25000000  0.45053509
   0.75000000  0.50000000  0.45053509
   0.50000000  0.50000000  0.35160527
   0.75000000  0.25000000  0.35160527
   0.50000000  0.24882271  0.65088287
   0.75117729  0.50000000  0.65088287
   0.50000000  0.50000000  0.55023136
   0.75005423  0.24994577  0.54985911

 position of ions in cartesian coordinates  (Angst):
   4.22049233  4.22049233 16.25814023
   4.22049233  4.22049233 17.40496005
   0.00000000  6.33073849  7.50000000
   2.11024616  0.00000000  7.50000000
   0.00000000  0.00000000  9.61024616
   2.11024616  6.33073849  9.61024616
   0.00000000  6.33022585 11.73368172
   2.11075880  0.00000000 11.73368172
   0.00000000  0.00000000 13.83821654
   2.10905031  6.33193435 13.83446740
   0.00000000  2.11024616  7.50000000
   2.11024616  4.22049233  7.50000000
   0.00000000  4.22049233  9.61024616
   2.11024616  2.11024616  9.61024616
   0.00000000  2.11075880 11.73368172
   2.11344006  4.22049233 11.73658877
   0.00000000  4.22049233 13.83544293
   2.10905031  2.10905031 13.83446740
   4.22049233  6.33073849  7.50000000
   6.33073849  0.00000000  7.50000000
   4.22049233  0.00000000  9.61024616
   6.33073849  6.33073849  9.61024616
   4.22049233  6.32754460 11.73658877
   6.33022585  0.00000000 11.73368172
   4.22049233  0.00000000 13.83544293
   6.33193435  6.33193435 13.83446740
   4.22049233  2.11024616  7.50000000
   6.33073849  4.22049233  7.50000000
   4.22049233  4.22049233  9.61024616
   6.33073849  2.11024616  9.61024616
   4.22049233  2.11344006 11.73658877
   6.32754460  4.22049233 11.73658877
   4.22049233  4.22049233 13.87814023
   6.33193435  2.10905031 13.83446740
   0.00000000  6.33073849  9.61024616
   2.11024616  0.00000000  9.61024616
   0.00000000  0.00000000  7.50000000
   2.11024616  6.33073849  7.50000000
   0.00000000  6.33258312 13.88586825
   2.10840153  0.00000000 13.88586825
   0.00000000  0.00000000 11.72785099
   2.10978841  6.33119624 11.72890095
   0.00000000  2.11024616  9.61024616
   2.11024616  4.22049233  9.61024616
   0.00000000  4.22049233  7.50000000
   2.11024616  2.11024616  7.50000000
   0.00000000  2.10840153 13.88586825
   2.10030867  4.22049233 13.88381232
   0.00000000  4.22049233 11.72684365
   2.10978841  2.10978841 11.72890095
   4.22049233  6.33073849  9.61024616
   6.33073849  0.00000000  9.61024616
   4.22049233  0.00000000  7.50000000
   6.33073849  6.33073849  7.50000000
   4.22049233  6.34067598 13.88381232
   6.33258312  0.00000000 13.88586825
   4.22049233  0.00000000 11.72684365
   6.33119624  6.33119624 11.72890095
   4.22049233  2.11024616  9.61024616
   6.33073849  4.22049233  9.61024616
   4.22049233  4.22049233  7.50000000
   6.33073849  2.11024616  7.50000000
   4.22049233  2.10030867 13.88381232
   6.34067598  4.22049233 13.88381232
   4.22049233  4.22049233 11.73684118
   6.33119624  2.10978841 11.72890095



--------------------------------------------------------------------------------------------------------


 k-point   1 :   0.0000 0.0000 0.0000  plane waves:   50745
 k-point   2 :   0.5000 0.0000 0.0000  plane waves:   50798
 k-point   3 :   0.5000 0.5000 0.0000  plane waves:   50752

 maximum and minimum number of plane-waves per node :     12720    12632

 maximum number of plane-waves:     50798
 maximum index in each direction: 
   IXMAX=   16   IYMAX=   16   IZMAX=   42
   IXMIN=  -17   IYMIN=  -17   IZMIN=  -42


 parallel 3D FFT for wavefunctions:
    minimum data exchange during FFTs selected (reduces bandwidth)
 parallel 3D FFT for charge:
    minimum data exchange during FFTs selected (reduces bandwidth)


 total amount of memory used by VASP MPI-rank0    78528. kBytes
=======================================================================

   base      :      30000. kBytes
   nonl-proj :      29343. kBytes
   fftplans  :       3857. kBytes
   grid      :       5885. kBytes
   one-center:        137. kBytes
   wavefun   :       9306. kBytes

     INWAV:  cpu time      0.0002: real time      0.0003
 Broyden mixing: mesh for mixing (old mesh)
   NGX = 33   NGY = 33   NGZ = 85
  (NGX  =108   NGY  =108   NGZ  =256)
  gives a total of  92565 points

 initial charge density was supplied:
 charge density of overlapping atoms calculated
 number of electron     458.0000000 magnetization 
 keeping initial charge density in first step


--------------------------------------------------------------------------------------------------------


 Maximum index for augmentation-charges          334 (set IRDMAX)


--------------------------------------------------------------------------------------------------------


 First call to EWALD:  gamma=   0.154
 Maximum number of real-space cells 4x 4x 2
 Maximum number of reciprocal cells 2x 2x 5

    FEWALD:  cpu time      0.0077: real time      0.0077


--------------------------------------- Iteration      1(   1)  ---------------------------------------


    POTLOK:  cpu time      0.0428: real time      0.0434
    SETDIJ:  cpu time      0.1529: real time      0.1530
    TRIAL :  cpu time      5.4394: real time      5.5302
    CORREC:  cpu time      0.0013: real time      0.0015
    --------------------------------------------
      LOOP:  cpu time      5.6381: real time      5.7712

 eigenvalue-minimisations  :  2304
 total energy-change (2. order) : 0.4154126E+04  (-0.3067083E+05)
 number of electron     458.0000000 magnetization 
 augmentation part      458.0000000 magnetization 

 DIPCOR: dipole corrections for dipol
 direction  3 min pos     1,
 dipolmoment           0.000000      0.000000     -0.000235 electrons x Angstroem
 Tr[quadrupol]     -6318.707259

 energy correction for charged system         0.000000 eV
 dipol+quadrupol energy correction           -0.000000 eV
 added-field ion interaction          0.001886 eV  (added to PSCEN)


 Free energy of the ion-electron system (eV)
  ---------------------------------------------------
  alpha Z        PSCENC =       907.96599038
  Ewald energy   TEWEN  =    137285.62460683
  -Hartree energ DENC   =   -173384.04980340
  -exchange      EXHF   =         0.00000000
  -V(xc)+E(xc)   XCENC  =      1789.25137276
  PAW double counting   =     32310.01086261   -36145.30683839
  entropy T*S    EENTRO =        -0.02704788
  eigenvalues    EBANDS =     -6839.23203637
  atomic energy  EATOM  =     48229.88884101
  ---------------------------------------------------
  free energy    TOTEN  =      4154.12594755 eV

  energy without entropy =     4154.15299543  energy(sigma->0) =     4154.13947149


--------------------------------------------------------------------------------------------------------




--------------------------------------- Iteration      1(   2)  ---------------------------------------


    TRIAL :  cpu time      2.2505: real time      2.2508
    CORREC:  cpu time      0.0007: real time      0.0007
    --------------------------------------------
      LOOP:  cpu time      2.2564: real time      2.2660

 eigenvalue-minimisations  :  2304
 total energy-change (2. order) :-0.4288374E+04  (-0.4215003E+04)
 number of electron     458.0000000 magnetization 
 augmentation part      458.0000000 magnetization 

 DIPCOR: dipole corrections for dipol
 direction  3 min pos     1,
 dipolmoment           0.000000      0.000000     -0.000235 electrons x Angstroem
 Tr[quadrupol]     -6318.707259

 energy correction for charged system         0.000000 eV
 dipol+quadrupol energy correction           -0.000000 eV
 added-field ion interaction          0.001886 eV  (added to PSCEN)


 Free energy of the ion-electron system (eV)
  ---------------------------------------------------
  alpha Z        PSCENC =       907.96599038
  Ewald energy   TEWEN  =    137285.62460683
  -Hartree energ DENC   =   -173384.04980340
  -exchange      EXHF   =         0.00000000
  -V(xc)+E(xc)   XCENC  =      1789.25137276
  PAW double counting   =     32310.01086261   -36145.30683839
  entropy T*S    EENTRO =        -0.00000000
  eigenvalues    EBANDS =    -11127.63265527
  atomic energy  EATOM  =     48229.88884101
  ---------------------------------------------------
  free energy    TOTEN  =      -134.24762347 eV

  energy without entropy =     -134.24762347  energy(sigma->0) =     -134.24762347


--------------------------------------------------------------------------------------------------------




--------------------------------------- Iteration      1(   3)  ---------------------------------------


    TRIAL :  cpu time      2.3683: real time      2.3689
    CORREC:  cpu time      0.0004: real time      0.0003
    --------------------------------------------
      LOOP:  cpu time      2.3733: real time      2.3831

 eigenvalue-minimisations  :  2304
 total energy-change (2. order) :-0.3104831E+03  (-0.3084196E+03)
 number of electron     458.0000000 magnetization 
 augmentation part      458.0000000 magnetization 

 DIPCOR: dipole corrections for dipol
 direction  3 min pos     1,
 dipolmoment           0.000000      0.000000     -0.000235 electrons x Angstroem
 Tr[quadrupol]     -6318.707259

 energy correction for charged system         0.000000 eV
 dipol+quadrupol energy correction           -0.000000 eV
 added-field ion interaction          0.001886 eV  (added to PSCEN)


 Free energy of the ion-electron system (eV)
  ---------------------------------------------------
  alpha Z        PSCENC =       907.96599038
  Ewald energy   TEWEN  =    137285.62460683
  -Hartree energ DENC   =   -173384.04980340
  -exchange      EXHF   =         0.00000000
  -V(xc)+E(xc)   XCENC  =      1789.25137276
  PAW double counting   =     32310.01086261   -36145.30683839
  entropy T*S    EENTRO =        -0.00000000
  eigenvalues    EBANDS =    -11438.11570594
  atomic energy  EATOM  =     48229.88884101
  ---------------------------------------------------
  free energy    TOTEN  =      -444.73067413 eV

  energy without entropy =     -444.73067413  energy(sigma->0) =     -444.73067413


--------------------------------------------------------------------------------------------------------




--------------------------------------- Iteration      1(   4)  ---------------------------------------


    TRIAL :  cpu time      2.3683: real time      2.3684
    CORREC:  cpu time      0.0003: real time      0.0003
    --------------------------------------------
      LOOP:  cpu time      2.3828: real time      2.3830

 eigenvalue-minimisations  :  2368
 total energy-change (2. order) :-0.6018484E+01  (-0.6011359E+01)
 number of electron     458.0000000 magnetization 
 augmentation part      458.0000000 magnetization 

 DIPCOR: dipole corrections for dipol
 direction  3 min pos     1,
 dipolmoment           0.000000      0.000000     -0.000235 electrons x Angstroem
 Tr[quadrupol]     -6318.707259

 energy correction for charged system         0.000000 eV
 dipol+quadrupol energy correction           -0.000000 eV
 added-field ion interaction          0.001886 eV  (added to PSCEN)


 Free energy of the ion-electron system (eV)
  ---------------------------------------------------
  alpha Z        PSCENC =       907.96599038
  Ewald energy   TEWEN  =    137285.62460683
  -Hartree energ DENC   =   -173384.04980340
  -exchange      EXHF   =         0.00000000
  -V(xc)+E(xc)   XCENC  =      1789.25137276
  PAW double counting   =     32310.01086261   -36145.30683839
  entropy T*S    EENTRO =        -0.00000000
  eigenvalues    EBANDS =    -11444.13419037
  atomic energy  EATOM  =     48229.88884101
  ---------------------------------------------------
  free energy    TOTEN  =      -450.74915857 eV

  energy without entropy =     -450.74915857  energy(sigma->0) =     -450.74915857


--------------------------------------------------------------------------------------------------------




--------------------------------------- Iteration      1(   5)  ---------------------------------------


    TRIAL :  cpu time      2.3841: real time      2.3842
    CORREC:  cpu time      0.0003: real time      0.0003
    CHARGE:  cpu time      0.0743: real time      0.0747
    --------------------------------------------
      LOOP:  cpu time      2.4710: real time      2.4898

 eigenvalue-minimisations  :  2368
 total energy-change (2. order) :-0.7811119E-01  (-0.7810813E-01)
 number of electron     457.9999365 magnetization 
 augmentation part      159.5866990 magnetization 

 DIPCOR: dipole corrections for dipol
 direction  3 min pos     1,
 dipolmoment           0.000000      0.000000     -0.000235 electrons x Angstroem
 Tr[quadrupol]     -6318.707259

 energy correction for charged system         0.000000 eV
 dipol+quadrupol energy correction           -0.000000 eV
 added-field ion interaction          0.001886 eV  (added to PSCEN)


 Free energy of the ion-electron system (eV)
  ---------------------------------------------------
  alpha Z        PSCENC =       907.96599038
  Ewald energy   TEWEN  =    137285.62460683
  -Hartree energ DENC   =   -173384.04980340
  -exchange      EXHF   =         0.00000000
  -V(xc)+E(xc)   XCENC  =      1789.25137276
  PAW double counting   =     32310.01086261   -36145.30683839
  entropy T*S    EENTRO =        -0.00000000
  eigenvalues    EBANDS =    -11444.21230156
  atomic energy  EATOM  =     48229.88884101
  ---------------------------------------------------
  free energy    TOTEN  =      -450.82726976 eV

  energy without entropy =     -450.82726976  energy(sigma->0) =     -450.82726976


--------------------------------------------------------------------------------------------------------




--------------------------------------- Iteration      1(   6)  ---------------------------------------


    POTLOK:  cpu time      0.0329: real time      0.0329
    SETDIJ:  cpu time      0.1888: real time      0.1888
    TRIAL :  cpu time      0.6736: real time      0.6742
    CORREC:  cpu time      0.5327: real time      0.5329
    CHARGE:  cpu time      0.0538: real time      0.0538
    --------------------------------------------
      LOOP:  cpu time      1.5086: real time      1.5096

 eigenvalue-minimisations  :     0
 total energy-change (2. order) : 0.1740653E+03  (-0.9610514E+02)
 number of electron     457.9999257 magnetization 
 augmentation part      156.6861839 magnetization 

 DIPCOR: dipole corrections for dipol
 direction  3 min pos     1,
 dipolmoment           0.000000      0.000000      0.164412 electrons x Angstroem
 Tr[quadrupol]     -6355.857097

 energy correction for charged system         0.000000 eV
 dipol+quadrupol energy correction           -0.001609 eV
 added-field ion interaction         -1.319324 eV  (added to PSCEN)


 Free energy of the ion-electron system (eV)
  ---------------------------------------------------
  alpha Z        PSCENC =       904.69151151
  Ewald energy   TEWEN  =    137285.62460683
  -Hartree energ DENC   =   -177258.45754801
  -exchange      EXHF   =         0.00000000
  -V(xc)+E(xc)   XCENC  =      1914.77631121
  PAW double counting   =     36993.87881964   -40783.91506388
  entropy T*S    EENTRO =        -0.00000000
  eigenvalues    EBANDS =     -7563.24945343
  atomic energy  EATOM  =     48229.88884101
  ---------------------------------------------------
  free energy    TOTEN  =      -276.76197511 eV

  energy without entropy =     -276.76197511  energy(sigma->0) =     -276.76197511


--------------------------------------------------------------------------------------------------------




--------------------------------------- Iteration      1(   7)  ---------------------------------------


    POTLOK:  cpu time      0.0288: real time      0.0288
    SETDIJ:  cpu time      0.1893: real time      0.1893
    TRIAL :  cpu time      0.6010: real time      0.6010
    CORREC:  cpu time      0.5167: real time      0.5168
    CHARGE:  cpu time      0.0540: real time      0.0540
    --------------------------------------------
      LOOP:  cpu time      1.3995: real time      1.4089

 eigenvalue-minimisations  :     0
 total energy-change (2. order) :-0.9650178E+02  (-0.6893695E+01)
 number of electron     457.9999248 magnetization 
 augmentation part      154.8030167 magnetization 

 DIPCOR: dipole corrections for dipol
 direction  3 min pos     1,
 dipolmoment           0.000000      0.000000      0.153948 electrons x Angstroem
 Tr[quadrupol]     -6361.068256

 energy correction for charged system         0.000000 eV
 dipol+quadrupol energy correction           -0.001411 eV
 added-field ion interaction         -1.235354 eV  (added to PSCEN)


 Free energy of the ion-electron system (eV)
  ---------------------------------------------------
  alpha Z        PSCENC =       906.40907983
  Ewald energy   TEWEN  =    137285.62460683
  -Hartree energ DENC   =   -175412.49530487
  -exchange      EXHF   =         0.00000000
  -V(xc)+E(xc)   XCENC  =      1846.15211731
  PAW double counting   =     35886.95870002   -39745.96572954
  entropy T*S    EENTRO =        -0.00000000
  eigenvalues    EBANDS =     -9369.83606121
  atomic energy  EATOM  =     48229.88884101
  ---------------------------------------------------
  free energy    TOTEN  =      -373.26375062 eV

  energy without entropy =     -373.26375062  energy(sigma->0) =     -373.26375062


--------------------------------------------------------------------------------------------------------




--------------------------------------- Iteration      1(   8)  ---------------------------------------


    POTLOK:  cpu time      0.0288: real time      0.0288
    SETDIJ:  cpu time      0.1878: real time      0.1878
    TRIAL :  cpu time      0.6021: real time      0.6022
    CORREC:  cpu time      0.5193: real time      0.5193
    CHARGE:  cpu time      0.0547: real time      0.0547
    --------------------------------------------
      LOOP:  cpu time      1.4075: real time      1.4077

 eigenvalue-minimisations  :     0
 total energy-change (2. order) :-0.6909204E+01  (-0.4351259E+01)
 number of electron     457.9999230 magnetization 
 augmentation part      154.9236194 magnetization 

 DIPCOR: dipole corrections for dipol
 direction  3 min pos     1,
 dipolmoment           0.000000      0.000000      0.117077 electrons x Angstroem
 Tr[quadrupol]     -6359.103031

 energy correction for charged system         0.000000 eV
 dipol+quadrupol energy correction           -0.000816 eV
 added-field ion interaction         -0.939484 eV  (added to PSCEN)


 Free energy of the ion-electron system (eV)
  ---------------------------------------------------
  alpha Z        PSCENC =       906.83677450
  Ewald energy   TEWEN  =    137285.62460683
  -Hartree energ DENC   =   -175302.78089344
  -exchange      EXHF   =         0.00000000
  -V(xc)+E(xc)   XCENC  =      1836.34103249
  PAW double counting   =     35770.73041255   -39559.97001418
  entropy T*S    EENTRO =        -0.00000000
  eigenvalues    EBANDS =     -9546.84371447
  atomic energy  EATOM  =     48229.88884101
  ---------------------------------------------------
  free energy    TOTEN  =      -380.17295470 eV

  energy without entropy =     -380.17295470  energy(sigma->0) =     -380.17295470


--------------------------------------------------------------------------------------------------------




--------------------------------------- Iteration      1(   9)  ---------------------------------------


    POTLOK:  cpu time      0.0291: real time      0.0291
    SETDIJ:  cpu time      0.1884: real time      0.1884
    TRIAL :  cpu time      0.6046: real time      0.6046
    CORREC:  cpu time      0.5174: real time      0.5179
    CHARGE:  cpu time      0.0543: real time      0.0543
    --------------------------------------------
      LOOP:  cpu time      1.3990: real time      1.4087

 eigenvalue-minimisations  :     0
 total energy-change (2. order) :-0.4265965E+01  (-0.1723922E+01)
 number of electron     457.9999230 magnetization 
 augmentation part      154.9448604 magnetization 

 DIPCOR: dipole corrections for dipol
 direction  3 min pos     1,
 dipolmoment           0.000000      0.000000      0.176812 electrons x Angstroem
 Tr[quadrupol]     -6351.374395

 energy correction for charged system         0.000000 eV
 dipol+quadrupol energy correction           -0.001861 eV
 added-field ion interaction         -1.418827 eV  (added to PSCEN)


 Free energy of the ion-electron system (eV)
  ---------------------------------------------------
  alpha Z        PSCENC =       907.07402068
  Ewald energy   TEWEN  =    137285.62460683
  -Hartree energ DENC   =   -175160.78295153
  -exchange      EXHF   =         0.00000000
  -V(xc)+E(xc)   XCENC  =      1835.70987290
  PAW double counting   =     35685.98198472   -39511.88839973
  entropy T*S    EENTRO =        -0.00000000
  eigenvalues    EBANDS =     -9656.04689416
  atomic energy  EATOM  =     48229.88884101
  ---------------------------------------------------
  free energy    TOTEN  =      -384.43891927 eV

  energy without entropy =     -384.43891927  energy(sigma->0) =     -384.43891927


--------------------------------------------------------------------------------------------------------




--------------------------------------- Iteration      1(  10)  ---------------------------------------


    POTLOK:  cpu time      0.0291: real time      0.0291
    SETDIJ:  cpu time      0.1877: real time      0.1877
    TRIAL :  cpu time      0.6027: real time      0.6027
    CORREC:  cpu time      0.5174: real time      0.5175
    CHARGE:  cpu time      0.0546: real time      0.0546
    --------------------------------------------
      LOOP:  cpu time      1.4058: real time      1.4063

 eigenvalue-minimisations  :     0
 total energy-change (2. order) :-0.1741941E+01  (-0.5905202E+00)
 number of electron     457.9999237 magnetization 
 augmentation part      154.9076882 magnetization 

 DIPCOR: dipole corrections for dipol
 direction  3 min pos     1,
 dipolmoment           0.000000      0.000000      0.185443 electrons x Angstroem
 Tr[quadrupol]     -6350.560706

 energy correction for charged system         0.000000 eV
 dipol+quadrupol energy correction           -0.002047 eV
 added-field ion interaction         -1.488087 eV  (added to PSCEN)


 Free energy of the ion-electron system (eV)
  ---------------------------------------------------
  alpha Z        PSCENC =       906.64426141
  Ewald energy   TEWEN  =    137285.62460683
  -Hartree energ DENC   =   -174979.61938476
  -exchange      EXHF   =         0.00000000
  -V(xc)+E(xc)   XCENC  =      1834.02862718
  PAW double counting   =     35580.07992852   -39414.00491432
  entropy T*S    EENTRO =        -0.00000000
  eigenvalues    EBANDS =     -9828.82282654
  atomic energy  EATOM  =     48229.88884101
  ---------------------------------------------------
  free energy    TOTEN  =      -386.18086065 eV

  energy without entropy =     -386.18086065  energy(sigma->0) =     -386.18086065


--------------------------------------------------------------------------------------------------------




--------------------------------------- Iteration      1(  11)  ---------------------------------------


    POTLOK:  cpu time      0.0289: real time      0.0289
    SETDIJ:  cpu time      0.1900: real time      0.1900
    TRIAL :  cpu time      0.6033: real time      0.6033
    CORREC:  cpu time      0.5185: real time      0.5185
    CHARGE:  cpu time      0.0543: real time      0.0543
    --------------------------------------------
      LOOP:  cpu time      1.4000: real time      1.4093

 eigenvalue-minimisations  :     0
 total energy-change (2. order) :-0.5916489E+00  (-0.2099502E+00)
 number of electron     457.9999241 magnetization 
 augmentation part      155.0037862 magnetization 

 DIPCOR: dipole corrections for dipol
 direction  3 min pos     1,
 dipolmoment           0.000000      0.000000      0.157578 electrons x Angstroem
 Tr[quadrupol]     -6351.465876

 energy correction for charged system         0.000000 eV
 dipol+quadrupol energy correction           -0.001478 eV
 added-field ion interaction         -1.264489 eV  (added to PSCEN)


 Free energy of the ion-electron system (eV)
  ---------------------------------------------------
  alpha Z        PSCENC =       906.49667445
  Ewald energy   TEWEN  =    137285.62460683
  -Hartree energ DENC   =   -174918.30355161
  -exchange      EXHF   =         0.00000000
  -V(xc)+E(xc)   XCENC  =      1833.06717411
  PAW double counting   =     35523.96362999   -39349.76087589
  entropy T*S    EENTRO =        -0.00000000
  eigenvalues    EBANDS =     -9897.74900846
  atomic energy  EATOM  =     48229.88884101
  ---------------------------------------------------
  free energy    TOTEN  =      -386.77250956 eV

  energy without entropy =     -386.77250956  energy(sigma->0) =     -386.77250956


--------------------------------------------------------------------------------------------------------




--------------------------------------- Iteration      1(  12)  ---------------------------------------


    POTLOK:  cpu time      0.0291: real time      0.0291
    SETDIJ:  cpu time      0.1879: real time      0.1879
    TRIAL :  cpu time      0.6011: real time      0.6012
    CORREC:  cpu time      0.5170: real time      0.5170
    CHARGE:  cpu time      0.0539: real time      0.0539
    --------------------------------------------
      LOOP:  cpu time      1.3934: real time      1.4032

 eigenvalue-minimisations  :     0
 total energy-change (2. order) :-0.2099368E+00  (-0.7338888E-01)
 number of electron     457.9999242 magnetization 
 augmentation part      155.1065477 magnetization 

 DIPCOR: dipole corrections for dipol
 direction  3 min pos     1,
 dipolmoment           0.000000      0.000000      0.141576 electrons x Angstroem
 Tr[quadrupol]     -6352.189771

 energy correction for charged system         0.000000 eV
 dipol+quadrupol energy correction           -0.001193 eV
 added-field ion interaction         -1.136075 eV  (added to PSCEN)


 Free energy of the ion-electron system (eV)
  ---------------------------------------------------
  alpha Z        PSCENC =       906.69260917
  Ewald energy   TEWEN  =    137285.62460683
  -Hartree energ DENC   =   -174945.49308463
  -exchange      EXHF   =         0.00000000
  -V(xc)+E(xc)   XCENC  =      1833.34364319
  PAW double counting   =     35512.03995157   -39336.20818941
  entropy T*S    EENTRO =        -0.00000000
  eigenvalues    EBANDS =     -9872.87082408
  atomic energy  EATOM  =     48229.88884101
  ---------------------------------------------------
  free energy    TOTEN  =      -386.98244635 eV

  energy without entropy =     -386.98244635  energy(sigma->0) =     -386.98244635


--------------------------------------------------------------------------------------------------------




--------------------------------------- Iteration      1(  13)  ---------------------------------------


    POTLOK:  cpu time      0.0287: real time      0.0287
    SETDIJ:  cpu time      0.1879: real time      0.1879
    TRIAL :  cpu time      0.6026: real time      0.6027
    CORREC:  cpu time      0.5179: real time      0.5179
    CHARGE:  cpu time      0.0541: real time      0.0541
    --------------------------------------------
      LOOP:  cpu time      1.3969: real time      1.4057

 eigenvalue-minimisations  :     0
 total energy-change (2. order) :-0.7340863E-01  (-0.3243900E-01)
 number of electron     457.9999242 magnetization 
 augmentation part      155.1398204 magnetization 

 DIPCOR: dipole corrections for dipol
 direction  3 min pos     1,
 dipolmoment           0.000000      0.000000      0.136884 electrons x Angstroem
 Tr[quadrupol]     -6352.596768

 energy correction for charged system         0.000000 eV
 dipol+quadrupol energy correction           -0.001115 eV
 added-field ion interaction         -1.098430 eV  (added to PSCEN)


 Free energy of the ion-electron system (eV)
  ---------------------------------------------------
  alpha Z        PSCENC =       906.83269473
  Ewald energy   TEWEN  =    137285.62460683
  -Hartree energ DENC   =   -174975.20535463
  -exchange      EXHF   =         0.00000000
  -V(xc)+E(xc)   XCENC  =      1833.64244550
  PAW double counting   =     35511.14644531   -39338.25828420
  entropy T*S    EENTRO =        -0.00000000
  eigenvalues    EBANDS =     -9840.72724954
  atomic energy  EATOM  =     48229.88884101
  ---------------------------------------------------
  free energy    TOTEN  =      -387.05585498 eV

  energy without entropy =     -387.05585498  energy(sigma->0) =     -387.05585498


--------------------------------------------------------------------------------------------------------




--------------------------------------- Iteration      1(  14)  ---------------------------------------


    POTLOK:  cpu time      0.0286: real time      0.0286
    SETDIJ:  cpu time      0.1879: real time      0.1879
    TRIAL :  cpu time      0.6022: real time      0.6022
    CORREC:  cpu time      0.5171: real time      0.5171
    CHARGE:  cpu time      0.0547: real time      0.0547
    --------------------------------------------
      LOOP:  cpu time      1.3949: real time      1.4048

 eigenvalue-minimisations  :     0
 total energy-change (2. order) :-0.3246096E-01  (-0.1513059E-01)
 number of electron     457.9999242 magnetization 
 augmentation part      155.1244735 magnetization 

 DIPCOR: dipole corrections for dipol
 direction  3 min pos     1,
 dipolmoment           0.000000      0.000000      0.135445 electrons x Angstroem
 Tr[quadrupol]     -6352.909780

 energy correction for charged system         0.000000 eV
 dipol+quadrupol energy correction           -0.001092 eV
 added-field ion interaction         -1.086880 eV  (added to PSCEN)


 Free energy of the ion-electron system (eV)
  ---------------------------------------------------
  alpha Z        PSCENC =       906.86916626
  Ewald energy   TEWEN  =    137285.62460683
  -Hartree energ DENC   =   -174987.86661218
  -exchange      EXHF   =         0.00000000
  -V(xc)+E(xc)   XCENC  =      1833.64621965
  PAW double counting   =     35510.65890153   -39339.28561175
  entropy T*S    EENTRO =        -0.00000000
  eigenvalues    EBANDS =     -9826.62382729
  atomic energy  EATOM  =     48229.88884101
  ---------------------------------------------------
  free energy    TOTEN  =      -387.08831594 eV

  energy without entropy =     -387.08831594  energy(sigma->0) =     -387.08831594


--------------------------------------------------------------------------------------------------------




--------------------------------------- Iteration      1(  15)  ---------------------------------------


    POTLOK:  cpu time      0.0291: real time      0.0291
    SETDIJ:  cpu time      0.1875: real time      0.1875
    TRIAL :  cpu time      0.6027: real time      0.6027
    CORREC:  cpu time      0.5177: real time      0.5177
    CHARGE:  cpu time      0.0547: real time      0.0547
    --------------------------------------------
      LOOP:  cpu time      1.4059: real time      1.4061

 eigenvalue-minimisations  :     0
 total energy-change (2. order) :-0.1514029E-01  (-0.6275247E-02)
 number of electron     457.9999242 magnetization 
 augmentation part      155.1107631 magnetization 

 DIPCOR: dipole corrections for dipol
 direction  3 min pos     1,
 dipolmoment           0.000000      0.000000      0.134941 electrons x Angstroem
 Tr[quadrupol]     -6353.160299

 energy correction for charged system         0.000000 eV
 dipol+quadrupol energy correction           -0.001084 eV
 added-field ion interaction         -1.082836 eV  (added to PSCEN)


 Free energy of the ion-electron system (eV)
  ---------------------------------------------------
  alpha Z        PSCENC =       906.87714649
  Ewald energy   TEWEN  =    137285.62460683
  -Hartree energ DENC   =   -174996.47326981
  -exchange      EXHF   =         0.00000000
  -V(xc)+E(xc)   XCENC  =      1833.65769868
  PAW double counting   =     35513.83400331   -39341.69617892
  entropy T*S    EENTRO =        -0.00000000
  eigenvalues    EBANDS =     -9818.81630383
  atomic energy  EATOM  =     48229.88884101
  ---------------------------------------------------
  free energy    TOTEN  =      -387.10345623 eV

  energy without entropy =     -387.10345623  energy(sigma->0) =     -387.10345623


--------------------------------------------------------------------------------------------------------




--------------------------------------- Iteration      1(  16)  ---------------------------------------


    POTLOK:  cpu time      0.0289: real time      0.0289
    SETDIJ:  cpu time      0.1884: real time      0.1884
    TRIAL :  cpu time      0.6014: real time      0.6015
    CORREC:  cpu time      0.5168: real time      0.5168
    CHARGE:  cpu time      0.0548: real time      0.0548
    --------------------------------------------
      LOOP:  cpu time      1.3950: real time      1.4047

 eigenvalue-minimisations  :     0
[...]
    291       8.4703      0.00000
    292       8.5133      0.00000
    293       8.5194      0.00000
    294       8.5397      0.00000
    295       8.5745      0.00000
    296       8.5968      0.00000
    297       8.5994      0.00000
    298       8.6009      0.00000
    299       8.6225      0.00000
    300       8.7923      0.00000
    301       8.9021      0.00000
    302       8.9023      0.00000
    303       8.9357      0.00000
    304       9.1406      0.00000
    305       9.3380      0.00000
    306       9.3917      0.00000
    307       9.4072      0.00000
    308       9.4503      0.00000
    309       9.5189      0.00000
    310       9.5442      0.00000
    311       9.5565      0.00000
    312       9.7467      0.00000
    313       9.7755      0.00000
    314       9.8297      0.00000
    315       9.8301      0.00000
    316       9.8375      0.00000
    317      10.2331      0.00000
    318      10.2771      0.00000
    319      10.3444      0.00000
    320      10.3510      0.00000


--------------------------------------------------------------------------------------------------------


 soft charge-density along one line, spin component           1
         0         1         2         3         4         5         6         7         8         9
 total charge-density along one line

 pseudopotential strength for first ion, spin component:           1
 10.227  13.601   0.000   0.032   0.000  -0.000  -0.095  -0.000
 13.601  18.087   0.000   0.042   0.000  -0.000  -0.125  -0.000
  0.000   0.000  -4.365  -0.000  -0.000   8.551   0.000   0.000
  0.032   0.042  -0.000  -4.404   0.000   0.000   8.608  -0.000
  0.000   0.000  -0.000   0.000  -4.365   0.000  -0.000   8.551
 -0.000  -0.000   8.551   0.000   0.000 -18.887  -0.000  -0.000
 -0.095  -0.125   0.000   8.608  -0.000  -0.000 -18.965   0.000
 -0.000  -0.000   0.000  -0.000   8.551  -0.000   0.000 -18.887
 total augmentation occupancy for first ion, spin component:           1
  7.306  -3.304   0.000   2.005   0.000   0.000   0.369   0.000
 -3.304   1.877   0.000  -1.533   0.000  -0.000  -0.224   0.000
  0.000   0.000   0.841   0.000   0.000   0.060  -0.000   0.000
  2.005  -1.533   0.000   2.232   0.000   0.000   0.211  -0.000
  0.000   0.000   0.000   0.000   0.841   0.000   0.000   0.060
  0.000  -0.000   0.060   0.000   0.000   0.004   0.000   0.000
  0.369  -0.224  -0.000   0.211   0.000   0.000   0.029   0.000
  0.000   0.000   0.000  -0.000   0.060   0.000   0.000   0.004


------------------------ aborting loop because EDIFF is reached ----------------------------------------


    FORLOC:  cpu time      0.0041: real time      0.0041
    FORNL :  cpu time      0.4192: real time      0.4194
    STRESS:  cpu time      1.3372: real time      1.3374
    FORCOR:  cpu time      0.0266: real time      0.0266
    OFIELD:  cpu time      0.0001: real time      0.0001

  DFT-D2 method for vdW energy calculation
  -------------------------------------------------------------------

  Parameters of vdW forcefield:
         C6(Jnm^6/mol)     R0(A)
   -----------------------------
   C        1.750          1.452
   O        0.700          1.342
   Mg       0.630          1.243
   O        0.700          1.342

  vdW correction parametrized for the method pbe       

  IVDW =   1
  VDW_RADIUS =    50.000 A
  VDW_S6 =     0.750
  VDW_SR =     1.000
  VDW_D =    20.000
  LVDW_EWALD = F

  Number of pair interactions contributing to vdW energy:  768278
  Edisp (eV):   -3.69719
    FORVDW:  cpu time      0.1836: real time      0.1836

  FORCE on cell =-STRESS in cart. coord.  units (eV):
  Direction    XX          YY          ZZ          XY          YZ          ZX
  --------------------------------------------------------------------------------------
  Alpha Z   907.96410   907.96410   907.96410
  Ewald  157785.69189157785.69189************     0.00000     0.00000    -0.00000
  Hartree168192.54088168192.54088************    -0.00000    -0.00000    -0.00000
  E(xc)   -2500.83452 -2500.83452 -2504.72653     0.00000    -0.00000    -0.00000
  Local  ************************335566.28804    -0.00000    -0.00000    -0.00000
  n-local -2830.52511 -2831.33634 -2861.76118    -0.00000    -0.00000     0.00000
  augment  1053.99915  1053.99915  1044.15525     0.00000    -0.00000    -0.00000
  Kinetic  7494.37745  7496.96183  7517.78395    -0.00000     0.00000    -0.00001
  Fock        0.00000     0.00000     0.00000     0.00000     0.00000     0.00000
  vdW        -5.38286    -5.38286    -4.46713    -0.00000    -0.00000    -0.00000
  -------------------------------------------------------------------------------------
  Total     -24.02864   -24.02864    -0.40111     0.00000     0.00000     0.00000
  in kB     -25.33073   -25.33073    -0.42285     0.00000     0.00000     0.00000
  external pressure =      -17.03 kB  Pullay stress =        0.00 kB


 VOLUME and BASIS-vectors are now :
 -----------------------------------------------------------------------------
  energy-cutoff  :      600.00
  volume of cell :     1519.82
      direct lattice vectors                 reciprocal lattice vectors
     8.440984654  0.000000000  0.000000000     0.118469591  0.000000000  0.000000000
     0.000000000  8.440984654  0.000000000     0.000000000  0.118469591  0.000000000
     0.000000000  0.000000000 21.330738491     0.000000000  0.000000000  0.046880702

  length of vectors
     8.440984654  8.440984654 21.330738491     0.118469591  0.118469591  0.046880702


 FORCES acting on ions:
    Electron-Ion                     Ewald-Force                    Non-Local-Force
 -----------------------------------------------------------------------------------------------
   0.107E-12 0.337E-12 -.851E+03   -.102E-13 -.133E-14 0.824E+03   0.000E+00 -.794E-22 0.267E+02
   0.436E-12 0.943E-12 -.147E+04   -.711E-14 -.511E-14 0.153E+04   -.662E-23 0.000E+00 -.600E+02
   -.836E-13 -.135E+00 0.208E+04   0.560E-13 0.135E+00 -.207E+04   0.000E+00 -.213E-03 -.704E+01
   0.135E+00 0.285E-12 0.208E+04   -.135E+00 0.671E-13 -.207E+04   0.213E-03 0.132E-22 -.704E+01
   -.681E-13 0.104E-12 0.714E+03   -.150E-10 0.150E-10 -.714E+03   0.132E-22 0.000E+00 0.500E+00
   0.513E+00 -.513E+00 0.715E+03   -.509E+00 0.509E+00 -.715E+03   -.266E-02 0.266E-02 0.528E+00
   -.389E-13 -.296E+01 -.642E+03   0.157E-11 0.294E+01 0.642E+03   0.265E-22 0.125E-01 -.165E+00
   0.296E+01 0.158E-12 -.642E+03   -.294E+01 -.151E-11 0.642E+03   -.125E-01 0.132E-22 -.165E+00
   -.176E-13 -.667E-12 -.200E+04   0.444E-12 -.416E-12 0.200E+04   0.000E+00 0.397E-22 0.596E+01
   0.189E+02 -.189E+02 -.198E+04   -.190E+02 0.190E+02 0.198E+04   0.972E-01 -.972E-01 0.605E+01
   -.703E-13 0.135E+00 0.208E+04   -.277E-12 -.135E+00 -.207E+04   -.132E-22 0.213E-03 -.704E+01
   0.132E+00 0.102E-11 0.208E+04   -.130E+00 0.131E-10 -.207E+04   -.171E-02 -.265E-22 -.704E+01
   -.586E-13 0.107E-11 0.715E+03   -.165E-10 0.000E+00 -.715E+03   -.662E-23 0.000E+00 0.466E+00
   0.513E+00 0.513E+00 0.715E+03   -.509E+00 -.509E+00 -.715E+03   -.266E-02 -.266E-02 0.528E+00
   -.511E-13 0.296E+01 -.642E+03   0.304E-11 -.294E+01 0.642E+03   0.000E+00 -.125E-01 -.165E+00
   0.442E+01 0.764E-12 -.635E+03   -.435E+01 0.178E-14 0.635E+03   -.791E-01 -.132E-22 -.254E+00
   -.209E-13 -.684E-12 -.199E+04   -.355E-13 -.995E-13 0.198E+04   0.000E+00 0.000E+00 0.597E+01
   0.189E+02 0.189E+02 -.198E+04   -.190E+02 -.190E+02 0.198E+04   0.972E-01 0.972E-01 0.605E+01
   0.894E-12 -.132E+00 0.208E+04   -.129E-10 0.130E+00 -.207E+04   -.265E-22 0.171E-02 -.704E+01
   -.135E+00 0.258E-12 0.208E+04   0.135E+00 0.471E-13 -.207E+04   -.213E-03 0.000E+00 -.704E+01
   0.835E-12 0.774E-12 0.715E+03   0.145E-11 0.150E-10 -.715E+03   0.331E-23 0.000E+00 0.466E+00
   -.513E+00 -.513E+00 0.715E+03   0.509E+00 0.509E+00 -.715E+03   0.266E-02 0.266E-02 0.528E+00
   0.836E-12 -.442E+01 -.635E+03   -.141E-11 0.435E+01 0.635E+03   0.662E-23 0.791E-01 -.254E+00
   -.296E+01 0.131E-12 -.642E+03   0.294E+01 -.156E-11 0.642E+03   0.125E-01 0.000E+00 -.165E+00
   0.918E-12 0.714E-12 -.199E+04   0.782E-13 -.355E-14 0.198E+04   0.000E+00 -.265E-22 0.597E+01
   -.189E+02 -.189E+02 -.198E+04   0.190E+02 0.190E+02 0.198E+04   -.972E-01 -.972E-01 0.605E+01
   0.866E-12 0.132E+00 0.208E+04   -.131E-10 -.130E+00 -.207E+04   0.132E-22 -.171E-02 -.704E+01
   -.132E+00 0.579E-12 0.208E+04   0.130E+00 0.131E-10 -.207E+04   0.171E-02 0.132E-22 -.704E+01
   0.862E-12 0.148E-11 0.715E+03   -.782E-13 0.355E-14 -.716E+03   0.165E-23 0.000E+00 0.596E+00
   -.513E+00 0.513E+00 0.715E+03   0.509E+00 -.509E+00 -.715E+03   0.266E-02 -.266E-02 0.528E+00
   0.829E-12 0.442E+01 -.635E+03   -.284E-13 -.435E+01 0.635E+03   -.529E-22 -.791E-01 -.254E+00
   -.442E+01 -.203E-11 -.635E+03   0.435E+01 0.000E+00 0.635E+03   0.791E-01 -.265E-22 -.254E+00
   0.946E-12 0.872E-12 -.191E+04   -.426E-13 -.391E-13 0.190E+04   -.662E-23 0.000E+00 0.348E+01
   -.189E+02 0.189E+02 -.198E+04   0.190E+02 -.190E+02 0.198E+04   -.972E-01 0.972E-01 0.605E+01
   -.836E-13 -.428E+00 0.535E+03   0.409E-13 0.424E+00 -.535E+03   0.132E-22 0.646E-02 -.908E-01
   0.428E+00 -.306E-12 0.535E+03   -.424E+00 0.391E-13 -.535E+03   -.646E-02 0.265E-22 -.908E-01
   -.877E-13 0.269E-12 0.156E+04   0.853E-11 -.844E-11 -.156E+04   0.132E-22 0.000E+00 0.349E+01
   0.993E-01 -.993E-01 0.156E+04   -.986E-01 0.986E-01 -.156E+04   -.105E-02 0.105E-02 0.349E+01
   -.324E-13 -.755E+01 -.152E+04   -.871E-12 0.749E+01 0.153E+04   -.794E-22 0.523E-01 -.504E+01
   0.755E+01 -.882E-12 -.152E+04   -.749E+01 0.881E-12 0.153E+04   -.523E-01 0.529E-22 -.504E+01
   -.634E-13 -.776E-12 -.478E+03   -.853E-13 0.639E-13 0.478E+03   0.000E+00 0.662E-23 0.252E+00
   0.272E+01 -.272E+01 -.473E+03   -.271E+01 0.271E+01 0.472E+03   -.453E-02 0.453E-02 0.325E+00
   -.786E-13 0.428E+00 0.535E+03   0.142E-13 -.424E+00 -.535E+03   -.265E-22 -.646E-02 -.908E-01
   0.419E+00 0.673E-13 0.536E+03   -.444E+00 -.764E-11 -.536E+03   0.343E-01 0.993E-23 -.111E+00
   -.795E-13 0.822E-12 0.156E+04   0.845E-11 -.796E-12 -.156E+04   -.265E-22 0.000E+00 0.349E+01
   0.993E-01 0.993E-01 0.156E+04   -.986E-01 -.986E-01 -.156E+04   -.105E-02 -.105E-02 0.349E+01
   -.665E-13 0.755E+01 -.152E+04   -.774E-12 -.749E+01 0.153E+04   0.331E-23 -.523E-01 -.504E+01
   0.250E+02 0.126E-11 -.149E+04   -.247E+02 0.810E-11 0.149E+04   -.383E+00 -.265E-22 -.504E+01
   -.496E-13 0.909E-13 -.473E+03   -.741E-11 0.711E-14 0.473E+03   -.132E-22 0.000E+00 0.278E+00
   0.272E+01 0.272E+01 -.473E+03   -.271E+01 -.271E+01 0.472E+03   -.453E-02 -.453E-02 0.325E+00
   0.315E-12 -.419E+00 0.536E+03   0.764E-11 0.444E+00 -.536E+03   -.132E-22 -.343E-01 -.111E+00
   -.428E+00 -.328E-12 0.535E+03   0.424E+00 0.142E-13 -.535E+03   0.646E-02 -.132E-22 -.908E-01
   0.344E-12 0.929E-12 0.156E+04   0.845E-12 -.846E-11 -.156E+04   0.000E+00 0.000E+00 0.349E+01
   -.993E-01 -.993E-01 0.156E+04   0.986E-01 0.986E-01 -.156E+04   0.105E-02 0.105E-02 0.349E+01
   0.386E-12 -.250E+02 -.149E+04   -.816E-11 0.247E+02 0.149E+04   -.265E-22 0.383E+00 -.504E+01
   -.755E+01 -.822E-12 -.152E+04   0.749E+01 0.924E-12 0.153E+04   0.523E-01 0.529E-22 -.504E+01
   0.320E-12 0.266E-12 -.473E+03   -.711E-14 0.738E-11 0.473E+03   0.000E+00 0.000E+00 0.278E+00
   -.272E+01 -.272E+01 -.473E+03   0.271E+01 0.271E+01 0.472E+03   0.453E-02 0.453E-02 0.325E+00
   0.320E-12 0.419E+00 0.536E+03   0.763E-11 -.444E+00 -.536E+03   0.165E-22 0.343E-01 -.111E+00
   -.419E+00 0.100E-11 0.536E+03   0.444E+00 -.769E-11 -.536E+03   -.343E-01 0.000E+00 -.111E+00
   0.324E-12 0.232E-11 0.156E+04   0.824E-12 -.838E-12 -.157E+04   -.265E-22 0.000E+00 0.348E+01
   -.993E-01 0.993E-01 0.156E+04   0.986E-01 -.986E-01 -.156E+04   0.105E-02 -.105E-02 0.349E+01
   0.415E-12 0.250E+02 -.149E+04   -.820E-11 -.247E+02 0.149E+04   -.910E-23 -.383E+00 -.504E+01
   -.250E+02 -.144E-11 -.149E+04   0.247E+02 0.819E-11 0.149E+04   0.383E+00 0.000E+00 -.504E+01
   0.297E-12 0.269E-13 -.472E+03   -.497E-13 0.426E-13 0.472E+03   0.000E+00 0.331E-23 -.207E+00
   -.272E+01 0.272E+01 -.473E+03   0.271E+01 -.271E+01 0.472E+03   0.453E-02 -.453E-02 0.325E+00
 -----------------------------------------------------------------------------------------------
   0.262E-10 0.195E-10 0.528E+02   0.160E-12 -.107E-12 0.193E-11   -.154E-15 -.434E-16 -.529E+02


 POSITION                                       TOTAL-FORCE (eV/Angst)
 -----------------------------------------------------------------------------------
      4.22049      4.22049     16.25814         0.000000     -0.000000      0.405478
      4.22049      4.22049     17.40496         0.000000     -0.000000     -0.346274
      0.00000      6.33074      7.50000         0.000000      0.000038      0.350151
      2.11025      0.00000      7.50000        -0.000038     -0.000000      0.350151
      0.00000      0.00000      9.61025         0.000000     -0.000000      0.031351
      2.11025      6.33074      9.61025         0.001544     -0.001544      0.032734
      0.00000      6.33023     11.73368         0.000000      0.001026      0.036244
      2.11076      0.00000     11.73368        -0.001026     -0.000000      0.036244
      0.00000      0.00000     13.83822         0.000000     -0.000000     -0.011612
      2.10905      6.33193     13.83447        -0.007930      0.007930     -0.015559
      0.00000      2.11025      7.50000         0.000000     -0.000038      0.350151
      2.11025      4.22049      7.50000         0.000562     -0.000000      0.350249
      0.00000      4.22049      9.61025         0.000000     -0.000000      0.039161
      2.11025      2.11025      9.61025         0.001544      0.001544      0.032734
      0.00000      2.11076     11.73368         0.000000     -0.001026      0.036244
      2.11344      4.22049     11.73659        -0.003628     -0.000000      0.035744
      0.00000      4.22049     13.83544         0.000000     -0.000000     -0.014585
      2.10905      2.10905     13.83447        -0.007930     -0.007930     -0.015559
      4.22049      6.33074      7.50000         0.000000     -0.000562      0.350249
      6.33074      0.00000      7.50000         0.000038     -0.000000      0.350151
      4.22049      0.00000      9.61025         0.000000     -0.000000      0.039161
      6.33074      6.33074      9.61025        -0.001544     -0.001544      0.032734
      4.22049      6.32754     11.73659         0.000000      0.003628      0.035744
      6.33023      0.00000     11.73368         0.001026     -0.000000      0.036244
      4.22049      0.00000     13.83544         0.000000     -0.000000     -0.014585
      6.33193      6.33193     13.83447         0.007930      0.007930     -0.015559
      4.22049      2.11025      7.50000         0.000000      0.000562      0.350249
      6.33074      4.22049      7.50000        -0.000562     -0.000000      0.350249
      4.22049      4.22049      9.61025         0.000000     -0.000000      0.046117
      6.33074      2.11025      9.61025        -0.001544      0.001544      0.032734
      4.22049      2.11344     11.73659         0.000000     -0.003628      0.035744
      6.32754      4.22049     11.73659         0.003628     -0.000000      0.035744
      4.22049      4.22049     13.87814         0.000000     -0.000000      0.012183
      6.33193      2.10905     13.83447         0.007930     -0.007930     -0.015559
      0.00000      6.33074      9.61025         0.000000      0.001888      0.064562
      2.11025      0.00000      9.61025        -0.001888     -0.000000      0.064562
      0.00000      0.00000      7.50000         0.000000     -0.000000     -0.516696
      2.11025      6.33074      7.50000        -0.000297      0.000297     -0.516421
      0.00000      6.33258     13.88587         0.000000     -0.002911      0.016364
      2.10840      0.00000     13.88587         0.002911     -0.000000      0.016364
      0.00000      0.00000     11.72785         0.000000     -0.000000      0.017226
      2.10979      6.33120     11.72890         0.004345     -0.004345      0.013028
      0.00000      2.11025      9.61025         0.000000     -0.001888      0.064562
      2.11025      4.22049      9.61025         0.008890     -0.000000      0.073413
      0.00000      4.22049      7.50000         0.000000     -0.000000     -0.516557
      2.11025      2.11025      7.50000        -0.000297     -0.000297     -0.516421
      0.00000      2.10840     13.88587         0.000000      0.002911      0.016364
      2.10031      4.22049     13.88381        -0.017899     -0.000000      0.015684
      0.00000      4.22049     11.72684         0.000000     -0.000000      0.016077
      2.10979      2.10979     11.72890         0.004345      0.004345      0.013028
      4.22049      6.33074      9.61025         0.000000     -0.008890      0.073413
      6.33074      0.00000      9.61025         0.001888     -0.000000      0.064562
      4.22049      0.00000      7.50000         0.000000     -0.000000     -0.516557
      6.33074      6.33074      7.50000         0.000297      0.000297     -0.516421
      4.22049      6.34068     13.88381         0.000000      0.017899      0.015684
      6.33258      0.00000     13.88587        -0.002911     -0.000000      0.016364
      4.22049      0.00000     11.72684         0.000000     -0.000000      0.016077
      6.33120      6.33120     11.72890        -0.004345     -0.004345      0.013028
      4.22049      2.11025      9.61025         0.000000      0.008890      0.073413
      6.33074      4.22049      9.61025        -0.008890     -0.000000      0.073413
      4.22049      4.22049      7.50000         0.000000     -0.000000     -0.517110
      6.33074      2.11025      7.50000         0.000297     -0.000297     -0.516421
      4.22049      2.10031     13.88381         0.000000     -0.017899      0.015684
      6.34068      4.22049     13.88381         0.017899     -0.000000      0.015684
      4.22049      4.22049     11.73684         0.000000     -0.000000      0.006370
      6.33120      2.10979     11.72890        -0.004345      0.004345      0.013028
 -----------------------------------------------------------------------------------
    total drift:                                0.000000      0.000000     -0.021942


--------------------------------------------------------------------------------------------------------



  FREE ENERGIE OF THE ION-ELECTRON SYSTEM (eV)
  ---------------------------------------------------
  free  energy   TOTEN  =      -390.81083500 eV

  energy  without entropy=     -390.81083500  energy(sigma->0) =     -390.81083500



--------------------------------------------------------------------------------------------------------


    POTLOK:  cpu time      0.2384: real time      0.2384


--------------------------------------------------------------------------------------------------------


     LOOP+:  cpu time     47.2368: real time     47.5694
    4ORBIT:  cpu time      0.0000: real time      0.0000

 total amount of memory used by VASP MPI-rank0    78528. kBytes
=======================================================================

   base      :      30000. kBytes
   nonl-proj :      29343. kBytes
   fftplans  :       3857. kBytes
   grid      :       5885. kBytes
   one-center:        137. kBytes
   wavefun   :       9306. kBytes

  
  
 General timing and accounting informations for this job:
 ========================================================
  
                  Total CPU time used (sec):       65.137
                            User time (sec):       63.253
                          System time (sec):        1.884
                         Elapsed time (sec):       70.084
  
                   Maximum memory used (kb):      176376.
                   Average memory used (kb):          N/A
  
                          Minor page faults:        32137
                          Major page faults:           52
                 Voluntary context switches:         7174
